   2   2   1   0
  0.5674135E+03  0.1000000E-08  0.1000000E-08  0.1134827E-08  0.5000000E-15
   1.0000000000000000E-004
  CAR 
 unknown system                          
      0.62660164     -7.86788776  301     -5.40094646      1.00000000
     -7.868  0.0000E+00  0.0000E+00  0.0000E+00  0.0000E+00
     -7.840  0.0000E+00  0.0000E+00  0.0000E+00  0.0000E+00
     -7.811  0.0000E+00  0.0000E+00  0.0000E+00  0.0000E+00
     -7.783  0.0000E+00  0.0000E+00  0.0000E+00  0.0000E+00
     -7.755  0.0000E+00  0.0000E+00  0.0000E+00  0.0000E+00
     -7.726  0.0000E+00  0.0000E+00  0.0000E+00  0.0000E+00
     -7.698  0.0000E+00  0.0000E+00  0.0000E+00  0.0000E+00
     -7.670  0.0000E+00  0.0000E+00  0.0000E+00  0.0000E+00
     -7.641  0.0000E+00  0.0000E+00  0.0000E+00  0.0000E+00
     -7.613  0.0000E+00  0.0000E+00  0.0000E+00  0.0000E+00
     -7.585  0.0000E+00  0.0000E+00  0.0000E+00  0.0000E+00
     -7.556  0.0000E+00  0.0000E+00  0.0000E+00  0.0000E+00
     -7.528  0.9988E-09  0.0000E+00  0.2828E-10  0.0000E+00
     -7.500  0.1912E+00  0.0000E+00  0.5414E-02  0.0000E+00
     -7.471  0.3256E+02  0.0000E+00  0.9273E+00  0.0000E+00
     -7.443  0.2567E+01  0.0000E+00  0.1000E+01  0.0000E+00
     -7.415  0.8386E-06  0.0000E+00  0.1000E+01  0.0000E+00
     -7.387  0.0000E+00  0.0000E+00  0.1000E+01  0.0000E+00
     -7.358  0.0000E+00  0.0000E+00  0.1000E+01  0.0000E+00
     -7.330  0.0000E+00  0.0000E+00  0.1000E+01  0.0000E+00
     -7.302  0.0000E+00  0.0000E+00  0.1000E+01  0.0000E+00
     -7.273  0.0000E+00  0.0000E+00  0.1000E+01  0.0000E+00
     -7.245  0.0000E+00  0.0000E+00  0.1000E+01  0.0000E+00
     -7.217  0.0000E+00  0.0000E+00  0.1000E+01  0.0000E+00
     -7.188  0.0000E+00  0.0000E+00  0.1000E+01  0.0000E+00
     -7.160  0.0000E+00  0.0000E+00  0.1000E+01  0.0000E+00
     -7.132  0.0000E+00  0.0000E+00  0.1000E+01  0.0000E+00
     -7.103  0.0000E+00  0.0000E+00  0.1000E+01  0.0000E+00
     -7.075  0.0000E+00  0.0000E+00  0.1000E+01  0.0000E+00
     -7.047  0.0000E+00  0.0000E+00  0.1000E+01  0.0000E+00
     -7.018  0.0000E+00  0.0000E+00  0.1000E+01  0.0000E+00
     -6.990  0.0000E+00  0.0000E+00  0.1000E+01  0.0000E+00
     -6.962  0.0000E+00  0.0000E+00  0.1000E+01  0.0000E+00
     -6.933  0.0000E+00  0.0000E+00  0.1000E+01  0.0000E+00
     -6.905  0.0000E+00  0.0000E+00  0.1000E+01  0.0000E+00
     -6.877  0.0000E+00  0.0000E+00  0.1000E+01  0.0000E+00
     -6.849  0.0000E+00  0.0000E+00  0.1000E+01  0.0000E+00
     -6.820  0.0000E+00  0.0000E+00  0.1000E+01  0.0000E+00
     -6.792  0.0000E+00  0.0000E+00  0.1000E+01  0.0000E+00
     -6.764  0.0000E+00  0.0000E+00  0.1000E+01  0.0000E+00
     -6.735  0.0000E+00  0.0000E+00  0.1000E+01  0.0000E+00
     -6.707  0.0000E+00  0.0000E+00  0.1000E+01  0.0000E+00
     -6.679  0.0000E+00  0.0000E+00  0.1000E+01  0.0000E+00
     -6.650  0.0000E+00  0.0000E+00  0.1000E+01  0.0000E+00
     -6.622  0.0000E+00  0.0000E+00  0.1000E+01  0.0000E+00
     -6.594  0.0000E+00  0.0000E+00  0.1000E+01  0.0000E+00
     -6.565  0.0000E+00  0.0000E+00  0.1000E+01  0.0000E+00
     -6.537  0.0000E+00  0.0000E+00  0.1000E+01  0.0000E+00
     -6.509  0.0000E+00  0.0000E+00  0.1000E+01  0.0000E+00
     -6.480  0.0000E+00  0.0000E+00  0.1000E+01  0.0000E+00
     -6.452  0.0000E+00  0.0000E+00  0.1000E+01  0.0000E+00
     -6.424  0.0000E+00  0.0000E+00  0.1000E+01  0.0000E+00
     -6.396  0.0000E+00  0.0000E+00  0.1000E+01  0.0000E+00
     -6.367  0.0000E+00  0.0000E+00  0.1000E+01  0.0000E+00
     -6.339  0.0000E+00  0.0000E+00  0.1000E+01  0.0000E+00
     -6.311  0.0000E+00  0.0000E+00  0.1000E+01  0.0000E+00
     -6.282  0.0000E+00  0.0000E+00  0.1000E+01  0.0000E+00
     -6.254  0.0000E+00  0.0000E+00  0.1000E+01  0.0000E+00
     -6.226  0.0000E+00  0.0000E+00  0.1000E+01  0.0000E+00
     -6.197  0.0000E+00  0.0000E+00  0.1000E+01  0.0000E+00
     -6.169  0.0000E+00  0.0000E+00  0.1000E+01  0.0000E+00
     -6.141  0.0000E+00  0.0000E+00  0.1000E+01  0.0000E+00
     -6.112  0.0000E+00  0.0000E+00  0.1000E+01  0.0000E+00
     -6.084  0.0000E+00  0.0000E+00  0.1000E+01  0.0000E+00
     -6.056  0.0000E+00  0.0000E+00  0.1000E+01  0.0000E+00
     -6.027  0.0000E+00  0.0000E+00  0.1000E+01  0.0000E+00
     -5.999  0.0000E+00  0.0000E+00  0.1000E+01  0.0000E+00
     -5.971  0.0000E+00  0.0000E+00  0.1000E+01  0.0000E+00
     -5.942  0.0000E+00  0.0000E+00  0.1000E+01  0.0000E+00
     -5.914  0.0000E+00  0.0000E+00  0.1000E+01  0.0000E+00
     -5.886  0.0000E+00  0.0000E+00  0.1000E+01  0.0000E+00
     -5.858  0.0000E+00  0.0000E+00  0.1000E+01  0.0000E+00
     -5.829  0.0000E+00  0.0000E+00  0.1000E+01  0.0000E+00
     -5.801  0.0000E+00  0.0000E+00  0.1000E+01  0.0000E+00
     -5.773  0.0000E+00  0.0000E+00  0.1000E+01  0.0000E+00
     -5.744  0.0000E+00  0.0000E+00  0.1000E+01  0.0000E+00
     -5.716  0.0000E+00  0.0000E+00  0.1000E+01  0.0000E+00
     -5.688  0.0000E+00  0.0000E+00  0.1000E+01  0.0000E+00
     -5.659  0.0000E+00  0.0000E+00  0.1000E+01  0.0000E+00
     -5.631  0.0000E+00  0.0000E+00  0.1000E+01  0.0000E+00
     -5.603  0.0000E+00  0.0000E+00  0.1000E+01  0.0000E+00
     -5.574  0.0000E+00  0.0000E+00  0.1000E+01  0.0000E+00
     -5.546  0.0000E+00  0.0000E+00  0.1000E+01  0.0000E+00
     -5.518  0.2951E-10  0.4937E-04  0.1000E+01  0.1398E-05
     -5.489  0.3972E-01  0.8757E+01  0.1001E+01  0.2480E+00
     -5.461  0.2923E+02  0.2654E+02  0.1829E+01  0.9996E+00
     -5.433  0.6048E+01  0.1570E-01  0.2000E+01  0.1000E+01
     -5.404  0.1287E-04  0.0000E+00  0.2000E+01  0.1000E+01
     -5.376  0.0000E+00  0.0000E+00  0.2000E+01  0.1000E+01
     -5.348  0.0000E+00  0.0000E+00  0.2000E+01  0.1000E+01
     -5.320  0.0000E+00  0.0000E+00  0.2000E+01  0.1000E+01
     -5.291  0.0000E+00  0.0000E+00  0.2000E+01  0.1000E+01
     -5.263  0.0000E+00  0.0000E+00  0.2000E+01  0.1000E+01
     -5.235  0.0000E+00  0.0000E+00  0.2000E+01  0.1000E+01
     -5.206  0.0000E+00  0.0000E+00  0.2000E+01  0.1000E+01
     -5.178  0.0000E+00  0.0000E+00  0.2000E+01  0.1000E+01
     -5.150  0.0000E+00  0.0000E+00  0.2000E+01  0.1000E+01
     -5.121  0.0000E+00  0.0000E+00  0.2000E+01  0.1000E+01
     -5.093  0.0000E+00  0.0000E+00  0.2000E+01  0.1000E+01
     -5.065  0.0000E+00  0.0000E+00  0.2000E+01  0.1000E+01
     -5.036  0.0000E+00  0.0000E+00  0.2000E+01  0.1000E+01
     -5.008  0.0000E+00  0.0000E+00  0.2000E+01  0.1000E+01
     -4.980  0.0000E+00  0.0000E+00  0.2000E+01  0.1000E+01
     -4.951  0.0000E+00  0.0000E+00  0.2000E+01  0.1000E+01
     -4.923  0.0000E+00  0.0000E+00  0.2000E+01  0.1000E+01
     -4.895  0.0000E+00  0.0000E+00  0.2000E+01  0.1000E+01
     -4.867  0.0000E+00  0.0000E+00  0.2000E+01  0.1000E+01
     -4.838  0.0000E+00  0.0000E+00  0.2000E+01  0.1000E+01
     -4.810  0.0000E+00  0.0000E+00  0.2000E+01  0.1000E+01
     -4.782  0.0000E+00  0.0000E+00  0.2000E+01  0.1000E+01
     -4.753  0.0000E+00  0.0000E+00  0.2000E+01  0.1000E+01
     -4.725  0.0000E+00  0.0000E+00  0.2000E+01  0.1000E+01
     -4.697  0.0000E+00  0.0000E+00  0.2000E+01  0.1000E+01
     -4.668  0.0000E+00  0.0000E+00  0.2000E+01  0.1000E+01
     -4.640  0.0000E+00  0.0000E+00  0.2000E+01  0.1000E+01
     -4.612  0.0000E+00  0.0000E+00  0.2000E+01  0.1000E+01
     -4.583  0.0000E+00  0.0000E+00  0.2000E+01  0.1000E+01
     -4.555  0.0000E+00  0.0000E+00  0.2000E+01  0.1000E+01
     -4.527  0.0000E+00  0.0000E+00  0.2000E+01  0.1000E+01
     -4.498  0.0000E+00  0.0000E+00  0.2000E+01  0.1000E+01
     -4.470  0.0000E+00  0.0000E+00  0.2000E+01  0.1000E+01
     -4.442  0.0000E+00  0.0000E+00  0.2000E+01  0.1000E+01
     -4.413  0.0000E+00  0.0000E+00  0.2000E+01  0.1000E+01
     -4.385  0.0000E+00  0.0000E+00  0.2000E+01  0.1000E+01
     -4.357  0.0000E+00  0.0000E+00  0.2000E+01  0.1000E+01
     -4.329  0.0000E+00  0.0000E+00  0.2000E+01  0.1000E+01
     -4.300  0.0000E+00  0.0000E+00  0.2000E+01  0.1000E+01
     -4.272  0.0000E+00  0.0000E+00  0.2000E+01  0.1000E+01
     -4.244  0.0000E+00  0.0000E+00  0.2000E+01  0.1000E+01
     -4.215  0.0000E+00  0.0000E+00  0.2000E+01  0.1000E+01
     -4.187  0.0000E+00  0.0000E+00  0.2000E+01  0.1000E+01
     -4.159  0.0000E+00  0.0000E+00  0.2000E+01  0.1000E+01
     -4.130  0.0000E+00  0.0000E+00  0.2000E+01  0.1000E+01
     -4.102  0.0000E+00  0.0000E+00  0.2000E+01  0.1000E+01
     -4.074  0.0000E+00  0.0000E+00  0.2000E+01  0.1000E+01
     -4.045  0.0000E+00  0.0000E+00  0.2000E+01  0.1000E+01
     -4.017  0.0000E+00  0.0000E+00  0.2000E+01  0.1000E+01
     -3.989  0.0000E+00  0.0000E+00  0.2000E+01  0.1000E+01
     -3.960  0.0000E+00  0.0000E+00  0.2000E+01  0.1000E+01
     -3.932  0.0000E+00  0.0000E+00  0.2000E+01  0.1000E+01
     -3.904  0.0000E+00  0.0000E+00  0.2000E+01  0.1000E+01
     -3.875  0.0000E+00  0.0000E+00  0.2000E+01  0.1000E+01
     -3.847  0.0000E+00  0.0000E+00  0.2000E+01  0.1000E+01
     -3.819  0.0000E+00  0.0000E+00  0.2000E+01  0.1000E+01
     -3.791  0.0000E+00  0.0000E+00  0.2000E+01  0.1000E+01
     -3.762  0.0000E+00  0.0000E+00  0.2000E+01  0.1000E+01
     -3.734  0.0000E+00  0.0000E+00  0.2000E+01  0.1000E+01
     -3.706  0.0000E+00  0.0000E+00  0.2000E+01  0.1000E+01
     -3.677  0.0000E+00  0.0000E+00  0.2000E+01  0.1000E+01
     -3.649  0.0000E+00  0.0000E+00  0.2000E+01  0.1000E+01
     -3.621  0.0000E+00  0.0000E+00  0.2000E+01  0.1000E+01
     -3.592  0.0000E+00  0.0000E+00  0.2000E+01  0.1000E+01
     -3.564  0.0000E+00  0.0000E+00  0.2000E+01  0.1000E+01
     -3.536  0.0000E+00  0.0000E+00  0.2000E+01  0.1000E+01
     -3.507  0.0000E+00  0.0000E+00  0.2000E+01  0.1000E+01
     -3.479  0.0000E+00  0.0000E+00  0.2000E+01  0.1000E+01
     -3.451  0.0000E+00  0.0000E+00  0.2000E+01  0.1000E+01
     -3.422  0.0000E+00  0.0000E+00  0.2000E+01  0.1000E+01
     -3.394  0.0000E+00  0.0000E+00  0.2000E+01  0.1000E+01
     -3.366  0.0000E+00  0.0000E+00  0.2000E+01  0.1000E+01
     -3.337  0.0000E+00  0.0000E+00  0.2000E+01  0.1000E+01
     -3.309  0.0000E+00  0.0000E+00  0.2000E+01  0.1000E+01
     -3.281  0.0000E+00  0.0000E+00  0.2000E+01  0.1000E+01
     -3.253  0.0000E+00  0.0000E+00  0.2000E+01  0.1000E+01
     -3.224  0.0000E+00  0.0000E+00  0.2000E+01  0.1000E+01
     -3.196  0.0000E+00  0.0000E+00  0.2000E+01  0.1000E+01
     -3.168  0.0000E+00  0.0000E+00  0.2000E+01  0.1000E+01
     -3.139  0.0000E+00  0.0000E+00  0.2000E+01  0.1000E+01
     -3.111  0.0000E+00  0.0000E+00  0.2000E+01  0.1000E+01
     -3.083  0.0000E+00  0.0000E+00  0.2000E+01  0.1000E+01
     -3.054  0.0000E+00  0.0000E+00  0.2000E+01  0.1000E+01
     -3.026  0.0000E+00  0.0000E+00  0.2000E+01  0.1000E+01
     -2.998  0.0000E+00  0.0000E+00  0.2000E+01  0.1000E+01
     -2.969  0.0000E+00  0.0000E+00  0.2000E+01  0.1000E+01
     -2.941  0.0000E+00  0.0000E+00  0.2000E+01  0.1000E+01
     -2.913  0.0000E+00  0.0000E+00  0.2000E+01  0.1000E+01
     -2.884  0.0000E+00  0.0000E+00  0.2000E+01  0.1000E+01
     -2.856  0.0000E+00  0.0000E+00  0.2000E+01  0.1000E+01
     -2.828  0.0000E+00  0.0000E+00  0.2000E+01  0.1000E+01
     -2.800  0.0000E+00  0.0000E+00  0.2000E+01  0.1000E+01
     -2.771  0.0000E+00  0.0000E+00  0.2000E+01  0.1000E+01
     -2.743  0.0000E+00  0.0000E+00  0.2000E+01  0.1000E+01
     -2.715  0.0000E+00  0.0000E+00  0.2000E+01  0.1000E+01
     -2.686  0.0000E+00  0.0000E+00  0.2000E+01  0.1000E+01
     -2.658  0.0000E+00  0.0000E+00  0.2000E+01  0.1000E+01
     -2.630  0.0000E+00  0.0000E+00  0.2000E+01  0.1000E+01
     -2.601  0.0000E+00  0.0000E+00  0.2000E+01  0.1000E+01
     -2.573  0.0000E+00  0.0000E+00  0.2000E+01  0.1000E+01
     -2.545  0.0000E+00  0.0000E+00  0.2000E+01  0.1000E+01
     -2.516  0.0000E+00  0.0000E+00  0.2000E+01  0.1000E+01
     -2.488  0.0000E+00  0.0000E+00  0.2000E+01  0.1000E+01
     -2.460  0.0000E+00  0.0000E+00  0.2000E+01  0.1000E+01
     -2.431  0.0000E+00  0.0000E+00  0.2000E+01  0.1000E+01
     -2.403  0.0000E+00  0.0000E+00  0.2000E+01  0.1000E+01
     -2.375  0.0000E+00  0.0000E+00  0.2000E+01  0.1000E+01
     -2.346  0.0000E+00  0.0000E+00  0.2000E+01  0.1000E+01
     -2.318  0.0000E+00  0.0000E+00  0.2000E+01  0.1000E+01
     -2.290  0.0000E+00  0.0000E+00  0.2000E+01  0.1000E+01
     -2.262  0.0000E+00  0.0000E+00  0.2000E+01  0.1000E+01
     -2.233  0.0000E+00  0.0000E+00  0.2000E+01  0.1000E+01
     -2.205  0.0000E+00  0.0000E+00  0.2000E+01  0.1000E+01
     -2.177  0.0000E+00  0.0000E+00  0.2000E+01  0.1000E+01
     -2.148  0.0000E+00  0.0000E+00  0.2000E+01  0.1000E+01
     -2.120  0.0000E+00  0.0000E+00  0.2000E+01  0.1000E+01
     -2.092  0.0000E+00  0.0000E+00  0.2000E+01  0.1000E+01
     -2.063  0.0000E+00  0.0000E+00  0.2000E+01  0.1000E+01
     -2.035  0.0000E+00  0.3921E-14  0.2000E+01  0.1000E+01
     -2.007  0.0000E+00  0.4317E-03  0.2000E+01  0.1000E+01
     -1.978  0.0000E+00  0.1464E+02  0.2000E+01  0.1415E+01
     -1.950  0.0000E+00  0.2067E+02  0.2000E+01  0.2000E+01
     -1.922  0.1159E-04  0.2673E-02  0.2000E+01  0.2000E+01
     -1.893  0.9550E+01  0.3046E+00  0.2270E+01  0.2009E+01
     -1.865  0.7752E+02  0.6439E+02  0.4465E+01  0.3832E+01
     -1.837  0.1888E+02  0.5944E+01  0.5000E+01  0.4000E+01
     -1.808  0.1519E-02  0.2601E-05  0.5000E+01  0.4000E+01
     -1.780  0.0000E+00  0.0000E+00  0.5000E+01  0.4000E+01
     -1.752  0.0000E+00  0.0000E+00  0.5000E+01  0.4000E+01
     -1.724  0.0000E+00  0.0000E+00  0.5000E+01  0.4000E+01
     -1.695  0.0000E+00  0.0000E+00  0.5000E+01  0.4000E+01
     -1.667  0.0000E+00  0.0000E+00  0.5000E+01  0.4000E+01
     -1.639  0.0000E+00  0.0000E+00  0.5000E+01  0.4000E+01
     -1.610  0.0000E+00  0.0000E+00  0.5000E+01  0.4000E+01
     -1.582  0.0000E+00  0.0000E+00  0.5000E+01  0.4000E+01
     -1.554  0.0000E+00  0.0000E+00  0.5000E+01  0.4000E+01
     -1.525  0.0000E+00  0.0000E+00  0.5000E+01  0.4000E+01
     -1.497  0.0000E+00  0.0000E+00  0.5000E+01  0.4000E+01
     -1.469  0.0000E+00  0.0000E+00  0.5000E+01  0.4000E+01
     -1.440  0.0000E+00  0.0000E+00  0.5000E+01  0.4000E+01
     -1.412  0.0000E+00  0.0000E+00  0.5000E+01  0.4000E+01
     -1.384  0.0000E+00  0.0000E+00  0.5000E+01  0.4000E+01
     -1.355  0.0000E+00  0.0000E+00  0.5000E+01  0.4000E+01
     -1.327  0.0000E+00  0.0000E+00  0.5000E+01  0.4000E+01
     -1.299  0.0000E+00  0.0000E+00  0.5000E+01  0.4000E+01
     -1.271  0.0000E+00  0.0000E+00  0.5000E+01  0.4000E+01
     -1.242  0.0000E+00  0.0000E+00  0.5000E+01  0.4000E+01
     -1.214  0.0000E+00  0.0000E+00  0.5000E+01  0.4000E+01
     -1.186  0.0000E+00  0.0000E+00  0.5000E+01  0.4000E+01
     -1.157  0.0000E+00  0.0000E+00  0.5000E+01  0.4000E+01
     -1.129  0.0000E+00  0.0000E+00  0.5000E+01  0.4000E+01
     -1.101  0.0000E+00  0.0000E+00  0.5000E+01  0.4000E+01
     -1.072  0.0000E+00  0.0000E+00  0.5000E+01  0.4000E+01
     -1.044  0.0000E+00  0.0000E+00  0.5000E+01  0.4000E+01
     -1.016  0.0000E+00  0.0000E+00  0.5000E+01  0.4000E+01
     -0.987  0.0000E+00  0.0000E+00  0.5000E+01  0.4000E+01
     -0.959  0.0000E+00  0.0000E+00  0.5000E+01  0.4000E+01
     -0.931  0.0000E+00  0.0000E+00  0.5000E+01  0.4000E+01
     -0.902  0.0000E+00  0.0000E+00  0.5000E+01  0.4000E+01
     -0.874  0.0000E+00  0.0000E+00  0.5000E+01  0.4000E+01
     -0.846  0.0000E+00  0.0000E+00  0.5000E+01  0.4000E+01
     -0.817  0.0000E+00  0.0000E+00  0.5000E+01  0.4000E+01
     -0.789  0.0000E+00  0.0000E+00  0.5000E+01  0.4000E+01
     -0.761  0.0000E+00  0.0000E+00  0.5000E+01  0.4000E+01
     -0.733  0.0000E+00  0.0000E+00  0.5000E+01  0.4000E+01
     -0.704  0.0000E+00  0.0000E+00  0.5000E+01  0.4000E+01
     -0.676  0.0000E+00  0.0000E+00  0.5000E+01  0.4000E+01
     -0.648  0.0000E+00  0.0000E+00  0.5000E+01  0.4000E+01
     -0.619  0.0000E+00  0.0000E+00  0.5000E+01  0.4000E+01
     -0.591  0.0000E+00  0.0000E+00  0.5000E+01  0.4000E+01
     -0.563  0.0000E+00  0.0000E+00  0.5000E+01  0.4000E+01
     -0.534  0.0000E+00  0.0000E+00  0.5000E+01  0.4000E+01
     -0.506  0.0000E+00  0.1519E-05  0.5000E+01  0.4000E+01
     -0.478  0.0000E+00  0.3127E+01  0.5000E+01  0.4089E+01
     -0.449  0.0000E+00  0.3205E+02  0.5000E+01  0.4996E+01
     -0.421  0.0000E+00  0.1402E+00  0.5000E+01  0.5000E+01
     -0.393  0.0000E+00  0.4870E-09  0.5000E+01  0.5000E+01
     -0.364  0.0000E+00  0.0000E+00  0.5000E+01  0.5000E+01
     -0.336  0.0000E+00  0.0000E+00  0.5000E+01  0.5000E+01
     -0.308  0.2538E-07  0.0000E+00  0.5000E+01  0.5000E+01
     -0.279  0.7181E+00  0.0000E+00  0.5020E+01  0.5000E+01
     -0.251  0.3371E+02  0.0000E+00  0.5975E+01  0.5000E+01
     -0.223  0.8882E+00  0.0000E+00  0.6000E+01  0.5000E+01
     -0.195  0.4406E-07  0.0000E+00  0.6000E+01  0.5000E+01
     -0.166  0.0000E+00  0.0000E+00  0.6000E+01  0.5000E+01
     -0.138  0.0000E+00  0.0000E+00  0.6000E+01  0.5000E+01
     -0.110  0.0000E+00  0.0000E+00  0.6000E+01  0.5000E+01
     -0.081  0.0000E+00  0.0000E+00  0.6000E+01  0.5000E+01
     -0.053  0.0000E+00  0.0000E+00  0.6000E+01  0.5000E+01
     -0.025  0.0000E+00  0.0000E+00  0.6000E+01  0.5000E+01
      0.004  0.0000E+00  0.0000E+00  0.6000E+01  0.5000E+01
      0.032  0.0000E+00  0.0000E+00  0.6000E+01  0.5000E+01
      0.060  0.0000E+00  0.0000E+00  0.6000E+01  0.5000E+01
      0.089  0.0000E+00  0.0000E+00  0.6000E+01  0.5000E+01
      0.117  0.0000E+00  0.0000E+00  0.6000E+01  0.5000E+01
      0.145  0.0000E+00  0.0000E+00  0.6000E+01  0.5000E+01
      0.174  0.0000E+00  0.0000E+00  0.6000E+01  0.5000E+01
      0.202  0.0000E+00  0.8386E-06  0.6000E+01  0.5000E+01
      0.230  0.0000E+00  0.2567E+01  0.6000E+01  0.5073E+01
      0.259  0.0000E+00  0.3256E+02  0.6000E+01  0.5995E+01
      0.287  0.0000E+00  0.1912E+00  0.6000E+01  0.6000E+01
      0.315  0.0000E+00  0.9988E-09  0.6000E+01  0.6000E+01
      0.343  0.0000E+00  0.0000E+00  0.6000E+01  0.6000E+01
      0.372  0.0000E+00  0.0000E+00  0.6000E+01  0.6000E+01
      0.400  0.0000E+00  0.0000E+00  0.6000E+01  0.6000E+01
      0.428  0.0000E+00  0.0000E+00  0.6000E+01  0.6000E+01
      0.457  0.0000E+00  0.0000E+00  0.6000E+01  0.6000E+01
      0.485  0.0000E+00  0.0000E+00  0.6000E+01  0.6000E+01
      0.513  0.0000E+00  0.0000E+00  0.6000E+01  0.6000E+01
      0.542  0.0000E+00  0.0000E+00  0.6000E+01  0.6000E+01
      0.570  0.0000E+00  0.0000E+00  0.6000E+01  0.6000E+01
      0.598  0.0000E+00  0.0000E+00  0.6000E+01  0.6000E+01
      0.627  0.0000E+00  0.0000E+00  0.6000E+01  0.6000E+01
      0.62660164     -7.86788776  301     -5.40094646      1.00000000
     -7.868  0.0000E+00  0.0000E+00  0.0000E+00  0.0000E+00  0.0000E+00  0.0000E+00  0.0000E+00  0.0000E+00  0.0000E+00  0.0000E+00  0.0000E+00  0.0000E+00  0.0000E+00  0.0000E+00  0.0000E+00  0.0000E+00  0.0000E+00  0.0000E+00
     -7.840  0.0000E+00  0.0000E+00  0.0000E+00  0.0000E+00  0.0000E+00  0.0000E+00  0.0000E+00  0.0000E+00  0.0000E+00  0.0000E+00  0.0000E+00  0.0000E+00  0.0000E+00  0.0000E+00  0.0000E+00  0.0000E+00  0.0000E+00  0.0000E+00
     -7.811  0.0000E+00  0.0000E+00  0.0000E+00  0.0000E+00  0.0000E+00  0.0000E+00  0.0000E+00  0.0000E+00  0.0000E+00  0.0000E+00  0.0000E+00  0.0000E+00  0.0000E+00  0.0000E+00  0.0000E+00  0.0000E+00  0.0000E+00  0.0000E+00
     -7.783  0.0000E+00  0.0000E+00  0.0000E+00  0.0000E+00  0.0000E+00  0.0000E+00  0.0000E+00  0.0000E+00  0.0000E+00  0.0000E+00  0.0000E+00  0.0000E+00  0.0000E+00  0.0000E+00  0.0000E+00  0.0000E+00  0.0000E+00  0.0000E+00
     -7.755  0.0000E+00  0.0000E+00  0.0000E+00  0.0000E+00  0.0000E+00  0.0000E+00  0.0000E+00  0.0000E+00  0.0000E+00  0.0000E+00  0.0000E+00  0.0000E+00  0.0000E+00  0.0000E+00  0.0000E+00  0.0000E+00  0.0000E+00  0.0000E+00
     -7.726  0.0000E+00  0.0000E+00  0.0000E+00  0.0000E+00  0.0000E+00  0.0000E+00  0.0000E+00  0.0000E+00  0.0000E+00  0.0000E+00  0.0000E+00  0.0000E+00  0.0000E+00  0.0000E+00  0.0000E+00  0.0000E+00  0.0000E+00  0.0000E+00
     -7.698  0.0000E+00  0.0000E+00  0.0000E+00  0.0000E+00  0.0000E+00  0.0000E+00  0.0000E+00  0.0000E+00  0.0000E+00  0.0000E+00  0.0000E+00  0.0000E+00  0.0000E+00  0.0000E+00  0.0000E+00  0.0000E+00  0.0000E+00  0.0000E+00
     -7.670  0.0000E+00  0.0000E+00  0.0000E+00  0.0000E+00  0.0000E+00  0.0000E+00  0.0000E+00  0.0000E+00  0.0000E+00  0.0000E+00  0.0000E+00  0.0000E+00  0.0000E+00  0.0000E+00  0.0000E+00  0.0000E+00  0.0000E+00  0.0000E+00
     -7.641  0.0000E+00  0.0000E+00  0.0000E+00  0.0000E+00  0.0000E+00  0.0000E+00  0.0000E+00  0.0000E+00  0.0000E+00  0.0000E+00  0.0000E+00  0.0000E+00  0.0000E+00  0.0000E+00  0.0000E+00  0.0000E+00  0.0000E+00  0.0000E+00
     -7.613  0.0000E+00  0.0000E+00  0.0000E+00  0.0000E+00  0.0000E+00  0.0000E+00  0.0000E+00  0.0000E+00  0.0000E+00  0.0000E+00  0.0000E+00  0.0000E+00  0.0000E+00  0.0000E+00  0.0000E+00  0.0000E+00  0.0000E+00  0.0000E+00
     -7.585  0.0000E+00  0.0000E+00  0.0000E+00  0.0000E+00  0.0000E+00  0.0000E+00  0.0000E+00  0.0000E+00  0.0000E+00  0.0000E+00  0.0000E+00  0.0000E+00  0.0000E+00  0.0000E+00  0.0000E+00  0.0000E+00  0.0000E+00  0.0000E+00
     -7.556  0.0000E+00  0.0000E+00  0.0000E+00  0.0000E+00  0.0000E+00  0.0000E+00  0.0000E+00  0.0000E+00  0.0000E+00  0.0000E+00  0.0000E+00  0.0000E+00  0.0000E+00  0.0000E+00  0.0000E+00  0.0000E+00  0.0000E+00  0.0000E+00
     -7.528  0.1340E-11  0.0000E+00  0.7592E-28  0.0000E+00  0.1799E-12  0.0000E+00  0.4384E-28  0.0000E+00  0.0000E+00  0.0000E+00  0.0000E+00  0.0000E+00  0.0000E+00  0.0000E+00  0.0000E+00  0.0000E+00  0.0000E+00  0.0000E+00
     -7.500  0.2565E-03  0.0000E+00  0.1453E-19  0.0000E+00  0.3445E-04  0.0000E+00  0.8392E-20  0.0000E+00  0.0000E+00  0.0000E+00  0.0000E+00  0.0000E+00  0.0000E+00  0.0000E+00  0.0000E+00  0.0000E+00  0.0000E+00  0.0000E+00
     -7.471  0.4367E-01  0.0000E+00  0.2475E-17  0.0000E+00  0.5866E-02  0.0000E+00  0.1429E-17  0.0000E+00  0.0000E+00  0.0000E+00  0.0000E+00  0.0000E+00  0.0000E+00  0.0000E+00  0.0000E+00  0.0000E+00  0.0000E+00  0.0000E+00
     -7.443  0.3443E-02  0.0000E+00  0.1951E-18  0.0000E+00  0.4624E-03  0.0000E+00  0.1127E-18  0.0000E+00  0.0000E+00  0.0000E+00  0.0000E+00  0.0000E+00  0.0000E+00  0.0000E+00  0.0000E+00  0.0000E+00  0.0000E+00  0.0000E+00
     -7.415  0.1125E-08  0.0000E+00  0.6374E-25  0.0000E+00  0.1511E-09  0.0000E+00  0.3681E-25  0.0000E+00  0.0000E+00  0.0000E+00  0.0000E+00  0.0000E+00  0.0000E+00  0.0000E+00  0.0000E+00  0.0000E+00  0.0000E+00  0.0000E+00
     -7.387  0.0000E+00  0.0000E+00  0.0000E+00  0.0000E+00  0.0000E+00  0.0000E+00  0.0000E+00  0.0000E+00  0.0000E+00  0.0000E+00  0.0000E+00  0.0000E+00  0.0000E+00  0.0000E+00  0.0000E+00  0.0000E+00  0.0000E+00  0.0000E+00
     -7.358  0.0000E+00  0.0000E+00  0.0000E+00  0.0000E+00  0.0000E+00  0.0000E+00  0.0000E+00  0.0000E+00  0.0000E+00  0.0000E+00  0.0000E+00  0.0000E+00  0.0000E+00  0.0000E+00  0.0000E+00  0.0000E+00  0.0000E+00  0.0000E+00
     -7.330  0.0000E+00  0.0000E+00  0.0000E+00  0.0000E+00  0.0000E+00  0.0000E+00  0.0000E+00  0.0000E+00  0.0000E+00  0.0000E+00  0.0000E+00  0.0000E+00  0.0000E+00  0.0000E+00  0.0000E+00  0.0000E+00  0.0000E+00  0.0000E+00
     -7.302  0.0000E+00  0.0000E+00  0.0000E+00  0.0000E+00  0.0000E+00  0.0000E+00  0.0000E+00  0.0000E+00  0.0000E+00  0.0000E+00  0.0000E+00  0.0000E+00  0.0000E+00  0.0000E+00  0.0000E+00  0.0000E+00  0.0000E+00  0.0000E+00
     -7.273  0.0000E+00  0.0000E+00  0.0000E+00  0.0000E+00  0.0000E+00  0.0000E+00  0.0000E+00  0.0000E+00  0.0000E+00  0.0000E+00  0.0000E+00  0.0000E+00  0.0000E+00  0.0000E+00  0.0000E+00  0.0000E+00  0.0000E+00  0.0000E+00
     -7.245  0.0000E+00  0.0000E+00  0.0000E+00  0.0000E+00  0.0000E+00  0.0000E+00  0.0000E+00  0.0000E+00  0.0000E+00  0.0000E+00  0.0000E+00  0.0000E+00  0.0000E+00  0.0000E+00  0.0000E+00  0.0000E+00  0.0000E+00  0.0000E+00
     -7.217  0.0000E+00  0.0000E+00  0.0000E+00  0.0000E+00  0.0000E+00  0.0000E+00  0.0000E+00  0.0000E+00  0.0000E+00  0.0000E+00  0.0000E+00  0.0000E+00  0.0000E+00  0.0000E+00  0.0000E+00  0.0000E+00  0.0000E+00  0.0000E+00
     -7.188  0.0000E+00  0.0000E+00  0.0000E+00  0.0000E+00  0.0000E+00  0.0000E+00  0.0000E+00  0.0000E+00  0.0000E+00  0.0000E+00  0.0000E+00  0.0000E+00  0.0000E+00  0.0000E+00  0.0000E+00  0.0000E+00  0.0000E+00  0.0000E+00
     -7.160  0.0000E+00  0.0000E+00  0.0000E+00  0.0000E+00  0.0000E+00  0.0000E+00  0.0000E+00  0.0000E+00  0.0000E+00  0.0000E+00  0.0000E+00  0.0000E+00  0.0000E+00  0.0000E+00  0.0000E+00  0.0000E+00  0.0000E+00  0.0000E+00
     -7.132  0.0000E+00  0.0000E+00  0.0000E+00  0.0000E+00  0.0000E+00  0.0000E+00  0.0000E+00  0.0000E+00  0.0000E+00  0.0000E+00  0.0000E+00  0.0000E+00  0.0000E+00  0.0000E+00  0.0000E+00  0.0000E+00  0.0000E+00  0.0000E+00
     -7.103  0.0000E+00  0.0000E+00  0.0000E+00  0.0000E+00  0.0000E+00  0.0000E+00  0.0000E+00  0.0000E+00  0.0000E+00  0.0000E+00  0.0000E+00  0.0000E+00  0.0000E+00  0.0000E+00  0.0000E+00  0.0000E+00  0.0000E+00  0.0000E+00
     -7.075  0.0000E+00  0.0000E+00  0.0000E+00  0.0000E+00  0.0000E+00  0.0000E+00  0.0000E+00  0.0000E+00  0.0000E+00  0.0000E+00  0.0000E+00  0.0000E+00  0.0000E+00  0.0000E+00  0.0000E+00  0.0000E+00  0.0000E+00  0.0000E+00
     -7.047  0.0000E+00  0.0000E+00  0.0000E+00  0.0000E+00  0.0000E+00  0.0000E+00  0.0000E+00  0.0000E+00  0.0000E+00  0.0000E+00  0.0000E+00  0.0000E+00  0.0000E+00  0.0000E+00  0.0000E+00  0.0000E+00  0.0000E+00  0.0000E+00
     -7.018  0.0000E+00  0.0000E+00  0.0000E+00  0.0000E+00  0.0000E+00  0.0000E+00  0.0000E+00  0.0000E+00  0.0000E+00  0.0000E+00  0.0000E+00  0.0000E+00  0.0000E+00  0.0000E+00  0.0000E+00  0.0000E+00  0.0000E+00  0.0000E+00
     -6.990  0.0000E+00  0.0000E+00  0.0000E+00  0.0000E+00  0.0000E+00  0.0000E+00  0.0000E+00  0.0000E+00  0.0000E+00  0.0000E+00  0.0000E+00  0.0000E+00  0.0000E+00  0.0000E+00  0.0000E+00  0.0000E+00  0.0000E+00  0.0000E+00
     -6.962  0.0000E+00  0.0000E+00  0.0000E+00  0.0000E+00  0.0000E+00  0.0000E+00  0.0000E+00  0.0000E+00  0.0000E+00  0.0000E+00  0.0000E+00  0.0000E+00  0.0000E+00  0.0000E+00  0.0000E+00  0.0000E+00  0.0000E+00  0.0000E+00
     -6.933  0.0000E+00  0.0000E+00  0.0000E+00  0.0000E+00  0.0000E+00  0.0000E+00  0.0000E+00  0.0000E+00  0.0000E+00  0.0000E+00  0.0000E+00  0.0000E+00  0.0000E+00  0.0000E+00  0.0000E+00  0.0000E+00  0.0000E+00  0.0000E+00
     -6.905  0.0000E+00  0.0000E+00  0.0000E+00  0.0000E+00  0.0000E+00  0.0000E+00  0.0000E+00  0.0000E+00  0.0000E+00  0.0000E+00  0.0000E+00  0.0000E+00  0.0000E+00  0.0000E+00  0.0000E+00  0.0000E+00  0.0000E+00  0.0000E+00
     -6.877  0.0000E+00  0.0000E+00  0.0000E+00  0.0000E+00  0.0000E+00  0.0000E+00  0.0000E+00  0.0000E+00  0.0000E+00  0.0000E+00  0.0000E+00  0.0000E+00  0.0000E+00  0.0000E+00  0.0000E+00  0.0000E+00  0.0000E+00  0.0000E+00
     -6.849  0.0000E+00  0.0000E+00  0.0000E+00  0.0000E+00  0.0000E+00  0.0000E+00  0.0000E+00  0.0000E+00  0.0000E+00  0.0000E+00  0.0000E+00  0.0000E+00  0.0000E+00  0.0000E+00  0.0000E+00  0.0000E+00  0.0000E+00  0.0000E+00
     -6.820  0.0000E+00  0.0000E+00  0.0000E+00  0.0000E+00  0.0000E+00  0.0000E+00  0.0000E+00  0.0000E+00  0.0000E+00  0.0000E+00  0.0000E+00  0.0000E+00  0.0000E+00  0.0000E+00  0.0000E+00  0.0000E+00  0.0000E+00  0.0000E+00
     -6.792  0.0000E+00  0.0000E+00  0.0000E+00  0.0000E+00  0.0000E+00  0.0000E+00  0.0000E+00  0.0000E+00  0.0000E+00  0.0000E+00  0.0000E+00  0.0000E+00  0.0000E+00  0.0000E+00  0.0000E+00  0.0000E+00  0.0000E+00  0.0000E+00
     -6.764  0.0000E+00  0.0000E+00  0.0000E+00  0.0000E+00  0.0000E+00  0.0000E+00  0.0000E+00  0.0000E+00  0.0000E+00  0.0000E+00  0.0000E+00  0.0000E+00  0.0000E+00  0.0000E+00  0.0000E+00  0.0000E+00  0.0000E+00  0.0000E+00
     -6.735  0.0000E+00  0.0000E+00  0.0000E+00  0.0000E+00  0.0000E+00  0.0000E+00  0.0000E+00  0.0000E+00  0.0000E+00  0.0000E+00  0.0000E+00  0.0000E+00  0.0000E+00  0.0000E+00  0.0000E+00  0.0000E+00  0.0000E+00  0.0000E+00
     -6.707  0.0000E+00  0.0000E+00  0.0000E+00  0.0000E+00  0.0000E+00  0.0000E+00  0.0000E+00  0.0000E+00  0.0000E+00  0.0000E+00  0.0000E+00  0.0000E+00  0.0000E+00  0.0000E+00  0.0000E+00  0.0000E+00  0.0000E+00  0.0000E+00
     -6.679  0.0000E+00  0.0000E+00  0.0000E+00  0.0000E+00  0.0000E+00  0.0000E+00  0.0000E+00  0.0000E+00  0.0000E+00  0.0000E+00  0.0000E+00  0.0000E+00  0.0000E+00  0.0000E+00  0.0000E+00  0.0000E+00  0.0000E+00  0.0000E+00
     -6.650  0.0000E+00  0.0000E+00  0.0000E+00  0.0000E+00  0.0000E+00  0.0000E+00  0.0000E+00  0.0000E+00  0.0000E+00  0.0000E+00  0.0000E+00  0.0000E+00  0.0000E+00  0.0000E+00  0.0000E+00  0.0000E+00  0.0000E+00  0.0000E+00
     -6.622  0.0000E+00  0.0000E+00  0.0000E+00  0.0000E+00  0.0000E+00  0.0000E+00  0.0000E+00  0.0000E+00  0.0000E+00  0.0000E+00  0.0000E+00  0.0000E+00  0.0000E+00  0.0000E+00  0.0000E+00  0.0000E+00  0.0000E+00  0.0000E+00
     -6.594  0.0000E+00  0.0000E+00  0.0000E+00  0.0000E+00  0.0000E+00  0.0000E+00  0.0000E+00  0.0000E+00  0.0000E+00  0.0000E+00  0.0000E+00  0.0000E+00  0.0000E+00  0.0000E+00  0.0000E+00  0.0000E+00  0.0000E+00  0.0000E+00
     -6.565  0.0000E+00  0.0000E+00  0.0000E+00  0.0000E+00  0.0000E+00  0.0000E+00  0.0000E+00  0.0000E+00  0.0000E+00  0.0000E+00  0.0000E+00  0.0000E+00  0.0000E+00  0.0000E+00  0.0000E+00  0.0000E+00  0.0000E+00  0.0000E+00
     -6.537  0.0000E+00  0.0000E+00  0.0000E+00  0.0000E+00  0.0000E+00  0.0000E+00  0.0000E+00  0.0000E+00  0.0000E+00  0.0000E+00  0.0000E+00  0.0000E+00  0.0000E+00  0.0000E+00  0.0000E+00  0.0000E+00  0.0000E+00  0.0000E+00
     -6.509  0.0000E+00  0.0000E+00  0.0000E+00  0.0000E+00  0.0000E+00  0.0000E+00  0.0000E+00  0.0000E+00  0.0000E+00  0.0000E+00  0.0000E+00  0.0000E+00  0.0000E+00  0.0000E+00  0.0000E+00  0.0000E+00  0.0000E+00  0.0000E+00
     -6.480  0.0000E+00  0.0000E+00  0.0000E+00  0.0000E+00  0.0000E+00  0.0000E+00  0.0000E+00  0.0000E+00  0.0000E+00  0.0000E+00  0.0000E+00  0.0000E+00  0.0000E+00  0.0000E+00  0.0000E+00  0.0000E+00  0.0000E+00  0.0000E+00
     -6.452  0.0000E+00  0.0000E+00  0.0000E+00  0.0000E+00  0.0000E+00  0.0000E+00  0.0000E+00  0.0000E+00  0.0000E+00  0.0000E+00  0.0000E+00  0.0000E+00  0.0000E+00  0.0000E+00  0.0000E+00  0.0000E+00  0.0000E+00  0.0000E+00