    2    2    1    2
  0.5674135E+03  0.1000000E-08  0.1000000E-08  0.1134827E-08  0.5000000E-15
   1.0000000000000000E-004
  CAR 
 unknown system                          
      3      1      6

  0.1262379E-14  0.1262379E-14  0.1262379E-14  0.1000000E+01
    1       -7.481775     -5.484616   1.000000   1.000000
    2       -5.467828     -1.976851   1.000000   0.000000
    3       -1.885637     -1.874857   0.000000   0.000000
    4       -1.885637     -1.874857   0.000000   0.000000
    5       -1.864568     -0.468138   0.000000   0.000000
    6       -0.265003      0.240488   0.000000   0.000000
