 vasp.6.2.1 16May21 (build Dec 20 2021 17:02:34) complex                         
 executed on             LinuxGNU date 2025.11.28  04:55:46
 running on    1 total cores
 distrk:  each k-point on    1 cores,    1 groups
 distr:  one band on NCORE=   1 cores,    1 groups


--------------------------------------------------------------------------------------------------------


 INCAR:
   ENCUT = 500.000000
   SIGMA = 0.010000
   EDIFF = 1.00e-06
   ALGO = Normal
   GGA = PE
   PREC = Normal
   IBRION = -1
   ICHARG = 2
   ISMEAR = 0
   ISTART = 0
   ISYM = 0
   LORBIT = 11
   NELM = 100
   NELMIN = 4
   NPAR = 1
   NSW = 0
   LCHARG = .FALSE.
   LWAVE = .FALSE.
   LREAL = Auto
   ISPIN = 2
   MAGMOM = 1*0.8000 1*0.2000

 POTCAR:    PAW_PBE Be 06Sep2000                  
 POTCAR:    PAW_PBE H 15Jun2001                   
 POTCAR:    PAW_PBE Be 06Sep2000                  
   VRHFIN =Be: s2p0                                                                                 
   LEXCH  = PE                                                                                      
   EATOM  =    27.4793 eV,    2.0197 Ry                                                             
                                                                                                    
   TITEL  = PAW_PBE Be 06Sep2000                                                                    
   LULTRA =        F    use ultrasoft PP ?                                                          
   IUNSCR =        1    unscreen: 0-lin 1-nonlin 2-no                                               
   RPACOR =    1.580    partial core radius                                                         
   POMASS =    9.013; ZVAL   =    2.000    mass and valenz                                          
   RCORE  =    1.900    outmost cutoff radius                                                       
   RWIGS  =    1.880; RWIGS  =    0.995    wigner-seitz radius (au A)                               
   ENMAX  =  247.543; ENMIN  =  185.658 eV                                                          
   ICORE  =        2    local potential                                                             
   LCOR   =        T    correct aug charges                                                         
   LPAW   =        T    paw PP                                                                      
   EAUG   =  318.781                                                                                
   DEXC   =    0.000                                                                                
   RMAX   =    1.944    core radius for proj-oper                                                   
   RAUG   =    1.300    factor for augmentation sphere                                              
   RDEP   =    2.003    radius for radial grids                                                     
   RDEPT  =    1.802    core radius for aug-charge                                                  
                                                                                                    
   Atomic configuration                                                                             
    4 entries                                                                                       
     n  l   j            E        occ.                                                              
     1  0  0.50      -106.2287   2.0000                                                             
     2  0  0.50        -5.6162   1.9900                                                             
     2  1  0.50        -2.0244   0.0100                                                             
     3  2  1.50        -1.3606   0.0000                                                             
   Description                                                                                      
     l       E           TYP  RCUT    TYP  RCUT                                                     
     0     -5.6161739     23  1.900                                                                 
     0     27.2116520     23  1.900                                                                 
     1     -2.0243505     23  1.900                                                                 
     1     27.2116520     23  1.900                                                                 
     2     -1.3605826     15  1.500                                                                 
  local pseudopotential read in
  partial core-charges read in
  partial kinetic energy density read in
  atomic valenz-charges read in
  non local Contribution for L=           0  read in
    real space projection operators read in
  non local Contribution for L=           0  read in
    real space projection operators read in
  non local Contribution for L=           1  read in
    real space projection operators read in
  non local Contribution for L=           1  read in
    real space projection operators read in
    PAW grid and wavefunctions read in

   number of l-projection  operators is LMAX  =           4
   number of lm-projection operators is LMMAX =           8

 POTCAR:    PAW_PBE H 15Jun2001                   
   VRHFIN =H: ultrasoft test                                                                        
   LEXCH  = PE                                                                                      
   EATOM  =    12.4884 eV,    0.9179 Ry                                                             
                                                                                                    
   TITEL  = PAW_PBE H 15Jun2001                                                                     
   LULTRA =        F    use ultrasoft PP ?                                                          
   IUNSCR =        0    unscreen: 0-lin 1-nonlin 2-no                                               
   RPACOR =    0.000    partial core radius                                                         
   POMASS =    1.000; ZVAL   =    1.000    mass and valenz                                          
   RCORE  =    1.100    outmost cutoff radius                                                       
   RWIGS  =    0.700; RWIGS  =    0.370    wigner-seitz radius (au A)                               
   ENMAX  =  250.000; ENMIN  =  200.000 eV                                                          
   RCLOC  =    0.701    cutoff for local pot                                                        
   LCOR   =        T    correct aug charges                                                         
   LPAW   =        T    paw PP                                                                      
   EAUG   =  400.000                                                                                
   RMAX   =    1.123    core radius for proj-oper                                                   
   RAUG   =    1.200    factor for augmentation sphere                                              
   RDEP   =    1.112    radius for radial grids                                                     
   RDEPT  =    0.926    core radius for aug-charge                                                  
                                                                                                    
   Atomic configuration                                                                             
    2 entries                                                                                       
     n  l   j            E        occ.                                                              
     1  0  0.50        -6.4927   1.0000                                                             
     2  1  0.50        -3.4015   0.0000                                                             
   Description                                                                                      
     l       E           TYP  RCUT    TYP  RCUT                                                     
     0     -6.4927494     23  1.100                                                                 
     0      6.8029130     23  1.100                                                                 
     1     -4.0817478     23  1.100                                                                 
  local pseudopotential read in
  atomic valenz-charges read in
  non local Contribution for L=           0  read in
    real space projection operators read in
  non local Contribution for L=           0  read in
    real space projection operators read in
  non local Contribution for L=           1  read in
    real space projection operators read in
    PAW grid and wavefunctions read in

   number of l-projection  operators is LMAX  =           3
   number of lm-projection operators is LMMAX =           5

 -----------------------------------------------------------------------------
|                                                                             |
|               ----> ADVICE to this user running VASP <----                  |
|                                                                             |
|     You have a (more or less) 'small supercell' and for smaller cells       |
|     it is recommended to use the reciprocal-space projection scheme!        |
|     The real-space optimization is not efficient for small cells and it     |
|     is also less accurate ...                                               |
|     Therefore, set LREAL=.FALSE. in the INCAR file.                         |
|                                                                             |
 -----------------------------------------------------------------------------

 Optimization of the real space projectors (new method)

 maximal supplied QI-value         = 19.84
 optimisation between [QCUT,QGAM] = [ 11.31, 22.82] = [ 35.82,145.81] Ry 
 Optimized for a Real-space Cutoff    1.31 Angstroem

   l    n(q)    QCUT    max X(q) W(low)/X(q) W(high)/X(q)  e(spline) 
   0      9    11.310    14.494    0.13E-03    0.13E-03    0.88E-07
   0      9    11.310     6.112    0.11E-03    0.12E-03    0.76E-07
   1      8    11.310    27.202    0.47E-03    0.41E-03    0.62E-06
   1      8    11.310    10.944    0.46E-03    0.40E-03    0.59E-06
 Optimization of the real space projectors (new method)

 maximal supplied QI-value         = 34.20
 optimisation between [QCUT,QGAM] = [ 11.29, 22.57] = [ 35.68,142.71] Ry 
 Optimized for a Real-space Cutoff    1.16 Angstroem

   l    n(q)    QCUT    max X(q) W(low)/X(q) W(high)/X(q)  e(spline) 
   0      8    11.287    19.460    0.40E-03    0.73E-03    0.16E-06
   0      8    11.287    12.209    0.38E-03    0.70E-03    0.15E-06
   1      7    11.287     4.655    0.22E-03    0.25E-04    0.22E-06
  PAW_PBE Be 06Sep2000                  :
 energy of atom  1       EATOM=  -27.4793
 kinetic energy error for atom=    0.0001 (will be added to EATOM!!)
  PAW_PBE H 15Jun2001                   :
 energy of atom  2       EATOM=  -12.4884
 kinetic energy error for atom=    0.0020 (will be added to EATOM!!)


 POSCAR: Be  H
  positions in cartesian coordinates
  No initial velocities read in
 exchange correlation table for  LEXCH =        8
   RHO(1)=    0.500       N(1)  =     2000
   RHO(2)=  100.500       N(2)  =     4000



--------------------------------------------------------------------------------------------------------


 ion  position               nearest neighbor table
   1  0.500  0.500  0.672-
   2  0.500  0.500  0.328-


IMPORTANT INFORMATION: All symmetrisations will be switched off!
NOSYMM: (Re-)initialisation of all symmetry stuff for point group C_1.


----------------------------------------------------------------------------------------

                                     Primitive cell                                     

  volume of cell :    1134.8270

  direct lattice vectors                    reciprocal lattice vectors
    10.000000000  0.000000000  0.000000000     0.100000000  0.000000000  0.000000000
     0.000000000 10.000000000  0.000000000     0.000000000  0.100000000  0.000000000
     0.000000000  0.000000000 11.348270000     0.000000000  0.000000000  0.088119158

  length of vectors
    10.000000000 10.000000000 11.348270000     0.100000000  0.100000000  0.088119158

  position of ions in fractional coordinates (direct lattice)
     0.500000000  0.500000000  0.671832359
     0.500000000  0.500000000  0.328167641

  ion indices of the primitive-cell ions
   primitive index   ion index
                 1           1
                 2           2

----------------------------------------------------------------------------------------



 KPOINTS: KPOINTS created by Atomic Simulation Env

Automatic generation of k-mesh.
 Grid dimensions read from file:
 generate k-points for:    1    1    1

 Generating k-lattice:

  Cartesian coordinates                     Fractional coordinates (reciprocal lattice)
     0.100000000  0.000000000  0.000000000     1.000000000  0.000000000  0.000000000
     0.000000000  0.100000000  0.000000000     0.000000000  1.000000000  0.000000000
     0.000000000  0.000000000  0.088119158     0.000000000  0.000000000  1.000000000

  Length of vectors
     0.100000000  0.100000000  0.088119158

  Shift w.r.t. Gamma in fractional coordinates (k-lattice)
     0.000000000  0.000000000  0.000000000

 
 Subroutine IBZKPT returns following result:
 ===========================================
 
 Found      1 irreducible k-points:
 
 Following reciprocal coordinates:
            Coordinates               Weight
  0.000000  0.000000  0.000000      1.000000
 
 Following cartesian coordinates:
            Coordinates               Weight
  0.000000  0.000000  0.000000      1.000000
 


--------------------------------------------------------------------------------------------------------




 Dimension of arrays:
   k-points           NKPTS =      1   k-points in BZ     NKDIM =      1   number of bands    NBANDS=      6
   number of dos      NEDOS =    301   number of ions     NIONS =      2
   non local maximal  LDIM  =      4   non local SUM 2l+1 LMDIM =      8
   total plane-waves  NPLWV = 200704
   max r-space proj   IRMAX =   1715   max aug-charges    IRDMAX=   6204
   dimension x,y,z NGX =    56 NGY =   56 NGZ =   64
   dimension x,y,z NGXF=   112 NGYF=  112 NGZF=  128
   support grid    NGXF=   112 NGYF=  112 NGZF=  128
   ions per type =               1   1
   NGX,Y,Z   is equivalent  to a cutoff of   9.31,  9.31,  9.38 a.u.
   NGXF,Y,Z  is equivalent  to a cutoff of  18.62, 18.62, 18.75 a.u.

 SYSTEM =  unknown system                          
 POSCAR =  Be  H                                   

 Startparameter for this run:
   NWRITE =      2    write-flag & timer
   PREC   = normal    normal or accurate (medium, high low for compatibility)
   ISTART =      0    job   : 0-new  1-cont  2-samecut
   ICHARG =      2    charge: 1-file 2-atom 10-const
   ISPIN  =      2    spin polarized calculation?
   LNONCOLLINEAR =      F non collinear calculations
   LSORBIT =      F    spin-orbit coupling
   INIWAV =      1    electr: 0-lowe 1-rand  2-diag
   LASPH  =      F    aspherical Exc in radial PAW
 Electronic Relaxation 1
   ENCUT  =  500.0 eV  36.75 Ry    6.06 a.u.  18.23 18.23 20.69*2*pi/ulx,y,z
   ENINI  =  500.0     initial cutoff
   ENAUG  =  400.0 eV  augmentation charge cutoff
   NELM   =    100;   NELMIN=  4; NELMDL= -5     # of ELM steps 
   EDIFF  = 0.1E-05   stopping-criterion for ELM
   LREAL  =      T    real-space projection
   NLSPLINE    = F    spline interpolate recip. space projectors
   LCOMPAT=      F    compatible to vasp.4.4
   GGA_COMPAT  = T    GGA compatible to vasp.4.4-vasp.4.6
   LMAXPAW     = -100 max onsite density
   LMAXMIX     =    2 max onsite mixed and CHGCAR
   VOSKOWN=      0    Vosko Wilk Nusair interpolation
   ROPT   =   -0.00050  -0.00050
 Ionic relaxation
   EDIFFG = 0.1E-04   stopping-criterion for IOM
   NSW    =      0    number of steps for IOM
   NBLOCK =      1;   KBLOCK =      1    inner block; outer block 
   IBRION =     -1    ionic relax: 0-MD 1-quasi-New 2-CG
   NFREE  =      0    steps in history (QN), initial steepest desc. (CG)
   ISIF   =      2    stress and relaxation
   IWAVPR =     10    prediction:  0-non 1-charg 2-wave 3-comb
   ISYM   =      0    0-nonsym 1-usesym 2-fastsym
   LCORR  =      T    Harris-Foulkes like correction to forces

   POTIM  = 0.5000    time-step for ionic-motion
   TEIN   =    0.0    initial temperature
   TEBEG  =    0.0;   TEEND  =   0.0 temperature during run
   SMASS  =  -3.00    Nose mass-parameter (am)
   estimated Nose-frequenzy (Omega)   =  0.10E-29 period in steps = 0.13E+47 mass=  -0.229E-26a.u.
   SCALEE = 1.0000    scale energy and forces
   NPACO  =    256;   APACO  = 16.0  distance and # of slots for P.C.
   PSTRESS=    0.0 pullay stress

  Mass of Ions in am
   POMASS =   9.01  1.00
  Ionic Valenz
   ZVAL   =   2.00  1.00
  Atomic Wigner-Seitz radii
   RWIGS  =  -1.00 -1.00
  virtual crystal weights 
   VCA    =   1.00  1.00
   NELECT =       3.0000    total number of electrons
   NUPDOWN=      -1.0000    fix difference up-down

 DOS related values:
   EMIN   =  10.00;   EMAX   =-10.00  energy-range for DOS
   EFERMI =   0.00
   ISMEAR =     0;   SIGMA  =   0.01  broadening in eV -4-tet -1-fermi 0-gaus

 Electronic relaxation 2 (details)
   IALGO  =     38    algorithm
   LDIAG  =      T    sub-space diagonalisation (order eigenvalues)
   LSUBROT=      F    optimize rotation matrix (better conditioning)
   TURBO    =      0    0=normal 1=particle mesh
   IRESTART =      0    0=no restart 2=restart with 2 vectors
   NREBOOT  =      0    no. of reboots
   NMIN     =      0    reboot dimension
   EREF     =   0.00    reference energy to select bands
   IMIX   =      4    mixing-type and parameters
     AMIX     =   0.40;   BMIX     =  1.00
     AMIX_MAG =   1.60;   BMIX_MAG =  1.00
     AMIN     =   0.10
     WC   =   100.;   INIMIX=   1;  MIXPRE=   1;  MAXMIX= -45

 Intra band minimization:
   WEIMIN = 0.0000     energy-eigenvalue tresh-hold
   EBREAK =  0.42E-07  absolut break condition
   DEPER  =   0.30     relativ break condition  

   TIME   =   0.40     timestep for ELM

  volume/ion in A,a.u.               =     567.41      3829.10
  Fermi-wavevector in a.u.,A,eV,Ry     =   0.226363  0.427764  0.697165  0.051240
  Thomas-Fermi vector in A             =   1.014511

 Write flags
   LWAVE        =      F    write WAVECAR
   LDOWNSAMPLE  =      F    k-point downsampling of WAVECAR
   LCHARG       =      F    write CHGCAR
   LVTOT        =      F    write LOCPOT, total local potential
   LVHAR        =      F    write LOCPOT, Hartree potential only
   LELF         =      F    write electronic localiz. function (ELF)
   LORBIT       =     11    0 simple, 1 ext, 2 COOP (PROOUT), +10 PAW based schemes


 Dipole corrections
   LMONO  =      F    monopole corrections only (constant potential shift)
   LDIPOL =      F    correct potential (dipole corrections)
   IDIPOL =      0    1-x, 2-y, 3-z, 4-all directions 
   EPSILON=  1.0000000 bulk dielectric constant

 Exchange correlation treatment:
   GGA     =    PE    GGA type
   LEXCH   =     8    internal setting for exchange type
   VOSKOWN=      0    Vosko Wilk Nusair interpolation
   LHFCALC =     F    Hartree Fock is set to
   LHFONE  =     F    Hartree Fock one center treatment
   AEXX    =    0.0000 exact exchange contribution

 Linear response parameters
   LEPSILON=     F    determine dielectric tensor
   LRPA    =     F    only Hartree local field effects (RPA)
   LNABLA  =     F    use nabla operator in PAW spheres
   LVEL    =     F    velocity operator in full k-point grid
   LINTERFAST=   F  fast interpolation
   KINTER  =     0    interpolate to denser k-point grid
   CSHIFT  =0.1000    complex shift for real part using Kramers Kronig
   OMEGAMAX=  -1.0    maximum frequency
   DEG_THRESHOLD= 0.2000000E-02 threshold for treating states as degnerate
   RTIME   =   -0.100 relaxation time in fs
  (WPLASMAI=    0.000 imaginary part of plasma frequency in eV, 0.658/RTIME)
   DFIELD  = 0.0000000 0.0000000 0.0000000 field for delta impulse in time

 Orbital magnetization related:
   ORBITALMAG=     F  switch on orbital magnetization
   LCHIMAG   =     F  perturbation theory with respect to B field
   DQ        =  0.001000  dq finite difference perturbation B field
   LLRAUG    =     F  two centre corrections for induced B field



--------------------------------------------------------------------------------------------------------


 Static calculation
 charge density and potential will be updated during run
 spin polarized calculation
 Variant of blocked Davidson
 Davidson routine will perform the subspace rotation
 perform sub-space diagonalisation
    after iterative eigenvector-optimisation
 modified Broyden-mixing scheme, WC =      100.0
 initial mixing is a Kerker type mixing with AMIX =  0.4000 and BMIX =      1.0000
 Hartree-type preconditioning will be used
 using additional bands            4
 real space projection scheme for non local part
 use partial core corrections
 calculate Harris-corrections to forces   (improved forces if not selfconsistent)
 use gradient corrections 
 use of overlap-Matrix (Vanderbilt PP)
 Gauss-broadening in eV      SIGMA  =   0.01


--------------------------------------------------------------------------------------------------------


  energy-cutoff  :      500.00
  volume of cell :     1134.83
      direct lattice vectors                 reciprocal lattice vectors
    10.000000000  0.000000000  0.000000000     0.100000000  0.000000000  0.000000000
     0.000000000 10.000000000  0.000000000     0.000000000  0.100000000  0.000000000
     0.000000000  0.000000000 11.348270000     0.000000000  0.000000000  0.088119158

  length of vectors
    10.000000000 10.000000000 11.348270000     0.100000000  0.100000000  0.088119158



 k-points in units of 2pi/SCALE and weight: KPOINTS created by Atomic Simulation Env
   0.00000000  0.00000000  0.00000000       1.000

 k-points in reciprocal lattice and weights: KPOINTS created by Atomic Simulation Env
   0.00000000  0.00000000  0.00000000       1.000

 position of ions in fractional coordinates (direct lattice) 
   0.50000000  0.50000000  0.67183236
   0.50000000  0.50000000  0.32816764

 position of ions in cartesian coordinates  (Angst):
   5.00000000  5.00000000  7.62413500
   5.00000000  5.00000000  3.72413500



--------------------------------------------------------------------------------------------------------


 k-point   1 :   0.0000 0.0000 0.0000  plane waves:   28809

 maximum and minimum number of plane-waves per node :     28809    28809

 maximum number of plane-waves:     28809
 maximum index in each direction: 
   IXMAX=   18   IYMAX=   18   IZMAX=   20
   IXMIN=  -18   IYMIN=  -18   IZMIN=  -20


 serial   3D FFT for wavefunctions
 parallel 3D FFT for charge:
    minimum data exchange during FFTs selected (reduces bandwidth)


 total amount of memory used by VASP MPI-rank0   237460. kBytes
=======================================================================

   base      :      30000. kBytes
   nonlr-proj:        219. kBytes
   fftplans  :      55484. kBytes
   grid      :     146212. kBytes
   one-center:         12. kBytes
   wavefun   :       5533. kBytes

     INWAV:  cpu time    0.0000: real time    0.0000
 Broyden mixing: mesh for mixing (old mesh)
   NGX = 37   NGY = 37   NGZ = 41
  (NGX  =112   NGY  =112   NGZ  =128)
  gives a total of  56129 points

 initial charge density was supplied:
 charge density of overlapping atoms calculated
 number of electron       3.0000000 magnetization       1.0000000
 keeping initial charge density in first step


--------------------------------------------------------------------------------------------------------


 Maximum index for non-local projection operator         1599
 Maximum index for augmentation-charges         5775 (set IRDMAX)


--------------------------------------------------------------------------------------------------------


 First call to EWALD:  gamma=   0.170
 Maximum number of real-space cells 3x 3x 3
 Maximum number of reciprocal cells 3x 3x 3

    FEWALD:  cpu time    0.0006: real time    0.0006
                                                                                                                                                                                                                                                                                                                                                                                                                                                                                                                                                                                                                                                                                                                                                                                                                                                                                                                                                                                                                                                                                                                                                                                                                                                                                                                                                                                                                                                                                                                                                                                                                                                                                                                                                                                                                                                                                                                                                                                                                                                                                                                                                                                                                                                                                                                                                                                                                                                                                                                                                                                                                                                                                                                                                                                                                                                                                                                                                                                                                                                                                                                                                                                                                                                                                                                                                                                                                                                                                                                                                                                                                                                                                                                                                                                                                                                                                                                                                                                                                                                                                                                                                                                                                                                                                                                                                                                                                                                                                                                                                                                                                                                                                                                                                                                                                                                                                                                                                                                                                                                                                                                                                                                                                                                                                                                                                                                                                                                                                                                                                                                                                                                                                                                                                                                                                                                                                                                                                                                                                                                                                                                                                                                                                                                                                                                                                                                                                                                                                                                                                                                                                                                                                                                                                                                                                                                                                                                                                                                                                                                                                                                                                                                                                                                                                                                                                                                                                                                                                                                                                                                                                                                                                                                                                                                                                                                                                                                                                                                                                                                                                                                                                                                                                                                                                                                                                                                                                                                                                                                                                                                                                                                                                                                                                                                                                                                                                                                                                                                                                                                                                                                                                                                                                                                                                                                                                                                                                                                                                                                                                                                                                                                                                                                                                                                                                                                                                                                                                                                                                                                                                                                                                                                                                                                                                                                                                                                                                                                                                                                                                                                                                                                                                                                                                                                                                                                                                                                                                                                                                                                                                                                                                                                                                                                                                                                                                                                                                                                                                                                                                                                                                                                                                                                                                                                                                                                                                                                                                                                                                                                                                                                                                                                                                                                                                                                                                                                                                                                                                                                                                                                                                                                                                                                                                                                                                                                                                                                                                                                                                                                                                                                                                                                                                                                                                                                                                                                                                                                                                                                                                                                                                                                                                                                                                                                                                                                                                                                                                                                                                                                                                                                                                                                                                                                                                                                                                                                                                                                                                                                                                                                                                                                                                                                                                                                                                                                                                                                                                                                                                                                                                                                                                                                                                                                                                                                                                                                                                                                                                                                                                                                                                                                                                                                                                                                                                                                                                                                                                                                                                                                                                                                                                                                                                                                                                                                                                                                                                                                                                                                                                                                                                                                                                                                                                                                                                                                                                                                                                                                                                                                                                                                                                                                                                                                                                                                                                                                                                                                                                                                                                                                                                                                                                                                                                                                                                                                                                                                                                                                                                                                                                                                                                                                                                                                                                                                                                                                                                                                                                                                                                                                                                                                                                                                                                                                                                                                                                                                                                                                                                                                                                                                                                                                                                                                                                                                                                                                                                                                                                                                                                                                                                                                                                                                                                                                                                                                                                                                                                                                                                                                                                                                                                                                                                                                                                                                                                                                                                                                                                                                                                                                                                                                                                                                                                                                                                                                                                                                                                                                                                                                                                                                                                                                                                                                                                                                                                                                                                                                                                                                                                                                                                                                                                                                                                                                                                                                                                                                                                                                                                                                                                                                                                                                                                                                                                                                                                                                                                                                                                                                                                                                                                                                                                                                                                                                                                                                                                                                                                                                                                                                                                                                                                                                                                                                                                                                                                                                                                                                                                                                                                                                                                                                                                                                                                                                                                                                                                                                                                                                                                                                                                                                                                                                                                                                                                                                                                                                                                                                                                                                                                                                                                                                                                                                                                                                                                                                                                                                                                                                                                                                                                                                                                                                                                                                                                                                                                                                                                                                                                                                                                                                                                                                                                                                                                                                                                                                                                                                                                                                                                                                                                                                                                                                                                                                                                                                                                                                                                                                                                                                                                                                                                                                                                                                                                                                                                                                                                                                                                                                                                                                                                                                                                                                                                                                                                                                                                                                                                                                                                                                                                                                                                                                                                                                                                                                                                                                                                                                                                                                                                                                                                                                                                                                                                                                                                                                                                                                                                                                                                                                                                                                                                                                                                                                                                                                                                                                                                                                                                                                                                                                                                                                                                                                                                                                                                                                                                                                                                                                                                                                                                                                                                                                                                                                                                                                                                                                                                                                                                                                                                                                                                                                                                                                                                                                                                                                                                                                                                                                                                                                                                                                                                                                                                                                                                                                                                                                                                                                                                                                                                                                                                                                                                                                                                                                                                                                                                                                                                                                                                                                                                                                                                                                                                                                                                                                                                                                                                                                                                                                                                                                                                                                                                                                                                                                                                                                                                                                                                                                                                                                                                                                                                                                                                                                                                                                                                                                                                                                                                                                                                                                                                                                                                                                                                                                                                                                                                                                                                                                                                                                                                                                                                                                                                                                                                                                                                                                                                                                                                                                                                                                                                                                                                                                                                                                                                                                                                                                                                                                                                                                                                                                                                                                                                                                                                                                                                                                                                                                                                                                                                                                                                                                                                                                                                                                                                                                                                                                                                                                                                                                                                                                                                                                                                                                                                                                                                                                                                                                                                                                                                                                                                                                                                                                                                                                                                                                                                                                                                                                                                                                                                                                                                                                                                                                                                                                                                                                                                                                                                                                                                                                                                                                                                                                                                                                                                                                                                                                                                                                                                                                                                                                                                                                                                                                                                                                                                                                                                                                                                                                                                                                                                                                                                                                                                                                                                                                                                                                                                                                                                                                                                                                                                                                                                                                                                                                                                                                                                                                                                                                                                                                                                                                                                                                                                                                                                                                                                                                                                                                                                                                                                                                                                                                                                                                                                                                                                                                                                                                                                                                                                                                                                                                                                                                                                                                                                                                                                                                                                                                                                                                                                                                                                                                                                                                                                                                                                                                                                                                                                                                                                                                                                                                                                                                                                                                                                                                                                                                                                                                                                                                                                                                                                                                                                                                                                                                                                                                                                                                                                                                                                                                                                                                                                                                                                                                                                                                                                                                                                                                                                                                                                                                                                                                                                                                                                                                                                                                                                                                                                                                                                                                                                                                                                                                                                                                                                                                                                                                                                                                                                                                                                                                                                                                                                                                                                                                                                                                                                                                                                                                                                                                                                                                                                                                                                                                                                                                                                                                                                                                                                                                                                                                                                                                                                                                                                                                                                                                                                                                                                                                                                                                                                                                                                                                                                                                                                                                                                                                                                                                                                                                                                                                                                                                                                                                                                                                                                                                                                                                                                                                                                                                                                                                                                                                                                                                                                                                                                                                                                                                                                                                                                                                                                                                                                                                                                                                                                                                                                                                                                                                                                                                                                                                                                                                                                                                                                                                                                                                                                                                                                                                                                                                                                                                                                                                                                                                                                                                                                                                                                                                                                                                                                                                                                                                                                                                                                                                                                                                                                                                                                                                                                                                                                                                                                                                                                                                                                                                                                                                                                                                                                                                                                                                                                                                                                                                                                                                                                                                                                                                                                                                                                                                                                                                                                                                                                                                                                                                                                                                                                                                                                                                                                                                                                                                                                                                                                                                                                                                                                                                                                                                                                                                                                                                                                                                                                                                                                                                                                                                                                                                                                                                                                                                                                                                                                                                                                                                                                                                                                                                                                                                                                                                                            alpha Z        PSCENC =         0.02953063
  Ewald energy   TEWEN  =        -9.48330183
  -Hartree energ DENC   =       -18.22485235
  -exchange      EXHF   =         0.00000000
  -V(xc)+E(xc)   XCENC  =         4.36049014
  PAW double counting   =        17.37474343      -16.75108633
  entropy T*S    EENTRO =        -0.00000000
  eigenvalues    EBANDS =       -18.43416685
  atomic energy  EATOM  =        39.96565389
  Solvation  Ediel_sol  =         0.00000000
  ---------------------------------------------------
  free energy    TOTEN  =        -1.16298926 eV

  energy without entropy =       -1.16298926  energy(sigma->0) =       -1.16298926


--------------------------------------------------------------------------------------------------------




--------------------------------------- Iteration      1(  28)  ---------------------------------------


    POTLOK:  cpu time    1.9476: real time    1.9535
    SETDIJ:  cpu time    0.0159: real time    0.0160
     EDDAV:  cpu time    0.3051: real time    0.3061
       DOS:  cpu time    0.0001: real time    0.0001
    CHARGE:  cpu time    0.0650: real time    0.0652
    MIXING:  cpu time    0.1055: real time    0.1059
    --------------------------------------------
      LOOP:  cpu time    2.4392: real time    2.4467

 eigenvalue-minimisations  :    30
 total energy-change (2. order) :-0.1790465E-05  (-0.1769854E-06)
 number of electron       2.9999997 magnetization       0.9999998
 augmentation part       -0.0741017 magnetization       0.0148804

 Broyden mixing:
  rms(total) = 0.50293E-04    rms(broyden)= 0.50290E-04
  rms(prec ) = 0.74012E-04
  weight for this iteration     100.00

 eigenvalues of (default mixing * dielectric matrix)
  average eigenvalue GAMMA=   1.8472
 11.9729  5.7097  3.0757  2.7472  2.7472  1.6514  1.6514  1.5294  1.1907  1.1907
  0.9390  0.9390  0.8293  0.8293  0.7296  0.7296  0.6436  0.6436  0.5804  0.6090
  0.6090  0.4688  0.4688

 Free energy of the ion-electron system (eV)
  ---------------------------------------------------
  alpha Z        PSCENC =         0.02953063
  Ewald energy   TEWEN  =        -9.48330183
  -Hartree energ DENC   =       -18.22486655
  -exchange      EXHF   =         0.00000000
  -V(xc)+E(xc)   XCENC  =         4.36052724
  PAW double counting   =        17.37491134      -16.75125482
  entropy T*S    EENTRO =        -0.00000000
  eigenvalues    EBANDS =       -18.43419095
  atomic energy  EATOM  =        39.96565389
  Solvation  Ediel_sol  =         0.00000000
  ---------------------------------------------------
  free energy    TOTEN  =        -1.16299105 eV

  energy without entropy =       -1.16299105  energy(sigma->0) =       -1.16299105


--------------------------------------------------------------------------------------------------------




--------------------------------------- Iteration      1(  29)  ---------------------------------------


    POTLOK:  cpu time    1.9428: real time    1.9474
    SETDIJ:  cpu time    0.0159: real time    0.0159
     EDDAV:  cpu time    0.2623: real time    0.2637
       DOS:  cpu time    0.0001: real time    0.0001
    CHARGE:  cpu time    0.0675: real time    0.0677
    MIXING:  cpu time    0.1160: real time    0.1164
    --------------------------------------------
      LOOP:  cpu time    2.4046: real time    2.4111

 eigenvalue-minimisations  :    24
 total energy-change (2. order) :-0.2289255E-05  (-0.3109850E-06)
 number of electron       2.9999997 magnetization       0.9999998
 augmentation part       -0.0741020 magnetization       0.0148820

 Broyden mixing:
  rms(total) = 0.39118E-04    rms(broyden)= 0.39115E-04
  rms(prec ) = 0.61138E-04
  weight for this iteration     100.00

 eigenvalues of (default mixing * dielectric matrix)
  average eigenvalue GAMMA=   1.7896
 11.8773  5.7417  2.9504  2.9504  2.5995  1.6460  1.6460  1.5941  0.4632  1.1883
  1.1883  0.9402  0.9402  0.8302  0.8302  0.7289  0.7289  0.6394  0.6394  0.5834
  0.6061  0.6061  0.5158  0.5158

 Free energy of the ion-electron system (eV)
  ---------------------------------------------------
  alpha Z        PSCENC =         0.02953063


--------------------------------------- Iteration      1(   1)  ---------------------------------------


    POTLOK:  cpu time    2.0522: real time    2.0885
    SETDIJ:  cpu time    0.0181: real time    0.0181
     EDDAV:  cpu time    0.3150: real time    0.3159
       DOS:  cpu time    0.0001: real time    0.0001
    --------------------------------------------
      LOOP:  cpu time    2.3855: real time    2.4227

 eigenvalue-minimisations  :    24
 total energy-change (2. order) : 0.6400135E+01  (-0.3228607E+02)
 number of electron       3.0000000 magnetization       1.0000000
 augmentation part        3.0000000 magnetization       1.0000000

 Free energy of the ion-electron system (eV)
  ---------------------------------------------------
  alpha Z        PSCENC =         0.02953063
  Ewald energy   TEWEN  =        -9.48330183
  -Hartree energ DENC   =       -17.77508605
  -exchange      EXHF   =         0.00000000
  -V(xc)+E(xc)   XCENC  =         3.99439662
  PAW double counting   =        17.31218835      -16.66372788
  entropy T*S    EENTRO =        -0.00000000
  eigenvalues    EBANDS =       -10.97951886
  atomic energy  EATOM  =        39.96565389
  Solvation  Ediel_sol  =         0.00000000
  ---------------------------------------------------
  free energy    TOTEN  =         6.40013487 eV

  energy without entropy =        6.40013487  energy(sigma->0) =        6.40013487


--------------------------------------------------------------------------------------------------------




--------------------------------------- Iteration      1(   2)  ---------------------------------------


     EDDAV:  cpu time    0.4314: real time    0.4325
       DOS:  cpu time    0.0001: real time    0.0001
    --------------------------------------------
      LOOP:  cpu time    0.4314: real time    0.4326

 eigenvalue-minimisations  :    36
[...]




--------------------------------------- Iteration      1(  26)  ---------------------------------------


    POTLOK:  cpu time    1.9153: real time    1.9189
    SETDIJ:  cpu time    0.0159: real time    0.0159
     EDDAV:  cpu time    0.3029: real time    0.3036
       DOS:  cpu time    0.0001: real time    0.0001
    CHARGE:  cpu time    0.0665: real time    0.0667
    MIXING:  cpu time    0.0950: real time    0.0953
    --------------------------------------------
      LOOP:  cpu time    2.3957: real time    2.4005

 eigenvalue-minimisations  :    30
 total energy-change (2. order) :-0.1587114E-04  (-0.2365448E-06)
 number of electron       2.9999997 magnetization       0.9999998
 augmentation part       -0.0741013 magnetization       0.0148729

 Broyden mixing:
  rms(total) = 0.91666E-04    rms(broyden)= 0.91666E-04
  rms(prec ) = 0.13803E-03
  weight for this iteration     100.00

 eigenvalues of (default mixing * dielectric matrix)
  average eigenvalue GAMMA=   1.9318
 11.5461  5.4981  2.9709  2.9709  2.4533  1.6227  1.6227  1.4484  1.1570  1.1570
  0.9330  0.9330  0.8195  0.8195  0.7420  0.7420  0.6556  0.6556  0.6208  0.6208
  0.5784

 Free energy of the ion-electron system (eV)
  ---------------------------------------------------
  alpha Z        PSCENC =         0.02953063
  Ewald energy   TEWEN  =        -9.48330183
  -Hartree energ DENC   =       -18.22514702
  -exchange      EXHF   =         0.00000000
  -V(xc)+E(xc)   XCENC  =         4.36038157
  PAW double counting   =        17.37467776      -16.75101446
  entropy T*S    EENTRO =        -0.00000000
  eigenvalues    EBANDS =       -18.43375119
  atomic energy  EATOM  =        39.96565389
  Solvation  Ediel_sol  =         0.00000000
  ---------------------------------------------------
  free energy    TOTEN  =        -1.16297066 eV

  energy without entropy =       -1.16297066  energy(sigma->0) =       -1.16297066


--------------------------------------------------------------------------------------------------------




--------------------------------------- Iteration      1(  27)  ---------------------------------------


    POTLOK:  cpu time    1.9129: real time    1.9158
    SETDIJ:  cpu time    0.0158: real time    0.0159
     EDDAV:  cpu time    0.3019: real time    0.3025
       DOS:  cpu time    0.0001: real time    0.0001
    CHARGE:  cpu time    0.0664: real time    0.0667
    MIXING:  cpu time    0.1003: real time    0.1006
    --------------------------------------------
      LOOP:  cpu time    2.3974: real time    2.4015

 eigenvalue-minimisations  :    30
 total energy-change (2. order) :-0.1860556E-04  (-0.2392126E-05)
 number of electron       2.9999997 magnetization       0.9999998
 augmentation part       -0.0741021 magnetization       0.0148782

 Broyden mixing:
  rms(total) = 0.57483E-04    rms(broyden)= 0.57471E-04
  rms(prec ) = 0.85647E-04
  weight for this iteration     100.00

 eigenvalues of (default mixing * dielectric matrix)
  average eigenvalue GAMMA=   1.8925
 11.8076  5.6816  3.0039  3.0039  2.1604  2.1604  1.5120  1.5120  1.1556  1.1556
  0.9127  0.9127  0.8111  0.8111  0.7386  0.7386  0.6476  0.6476  0.6077  0.6077
  0.5772  0.4691

 Free energy of the ion-electron system (eV)
  ---------------------------------------------------
  alpha Z        PSCENC =         0.02953063
  Ewald energy   TEWEN  =        -9.48330183
  -Hartree energ DENC   =       -18.22485235
  -exchange      EXHF   =         0.00000000
  -V(xc)+E(xc)   XCENC  =         4.36049014
  PAW double counting   =        17.37474343      -16.75108633
  entropy T*S    EENTRO =        -0.00000000
  eigenvalues    EBANDS =       -18.43416685
  atomic energy  EATOM  =        39.96565389
  Solvation  Ediel_sol  =         0.00000000
  ---------------------------------------------------
  free energy    TOTEN  =        -1.16298926 eV

  energy without entropy =       -1.16298926  energy(sigma->0) =       -1.16298926


--------------------------------------------------------------------------------------------------------




--------------------------------------- Iteration      1(  28)  ---------------------------------------


    POTLOK:  cpu time    1.9124: real time    1.9154
    SETDIJ:  cpu time    0.0160: real time    0.0160
     EDDAV:  cpu time    0.3026: real time    0.3033
       DOS:  cpu time    0.0001: real time    0.0001
    CHARGE:  cpu time    0.0665: real time    0.0667
    MIXING:  cpu time    0.1062: real time    0.1066
    --------------------------------------------
      LOOP:  cpu time    2.4038: real time    2.4081

 eigenvalue-minimisations  :    30
 total energy-change (2. order) :-0.1790465E-05  (-0.1769853E-06)
 number of electron       2.9999997 magnetization       0.9999998
 augmentation part       -0.0741017 magnetization       0.0148804

 Broyden mixing:
  rms(total) = 0.50293E-04    rms(broyden)= 0.50290E-04
  rms(prec ) = 0.74012E-04
  weight for this iteration     100.00

 eigenvalues of (default mixing * dielectric matrix)
  average eigenvalue GAMMA=   1.8472
 11.9729  5.7097  3.0757  2.7472  2.7472  1.6514  1.6514  1.5294  1.1907  1.1907
  0.9390  0.9390  0.8293  0.8293  0.7296  0.7296  0.6436  0.6436  0.5804  0.6090
  0.6090  0.4688  0.4688

 Free energy of the ion-electron system (eV)
  ---------------------------------------------------
  alpha Z        PSCENC =         0.02953063
  Ewald energy   TEWEN  =        -9.48330183
  -Hartree energ DENC   =       -18.22486655
  -exchange      EXHF   =         0.00000000
  -V(xc)+E(xc)   XCENC  =         4.36052724
  PAW double counting   =        17.37491134      -16.75125482
  entropy T*S    EENTRO =        -0.00000000
  eigenvalues    EBANDS =       -18.43419095
  atomic energy  EATOM  =        39.96565389
  Solvation  Ediel_sol  =         0.00000000
  ---------------------------------------------------
  free energy    TOTEN  =        -1.16299105 eV

  energy without entropy =       -1.16299105  energy(sigma->0) =       -1.16299105


--------------------------------------------------------------------------------------------------------




--------------------------------------- Iteration      1(  29)  ---------------------------------------


    POTLOK:  cpu time    1.9187: real time    1.9218
    SETDIJ:  cpu time    0.0158: real time    0.0158
     EDDAV:  cpu time    0.2543: real time    0.2548
       DOS:  cpu time    0.0001: real time    0.0001
    CHARGE:  cpu time    0.0668: real time    0.0670
    MIXING:  cpu time    0.1117: real time    0.1121
    --------------------------------------------
      LOOP:  cpu time    2.3674: real time    2.3716

 eigenvalue-minimisations  :    24
 total energy-change (2. order) :-0.2289255E-05  (-0.3109848E-06)
 number of electron       2.9999997 magnetization       0.9999998
 augmentation part       -0.0741020 magnetization       0.0148820

 Broyden mixing:
  rms(total) = 0.39118E-04    rms(broyden)= 0.39115E-04
  rms(prec ) = 0.61138E-04
  weight for this iteration     100.00

 eigenvalues of (default mixing * dielectric matrix)
  average eigenvalue GAMMA=   1.7896
 11.8773  5.7417  2.9504  2.9504  2.5995  1.6460  1.6460  1.5941  0.4632  1.1883
  1.1883  0.9402  0.9402  0.8302  0.8302  0.7289  0.7289  0.6394  0.6394  0.5834
  0.6061  0.6061  0.5158  0.5158

 Free energy of the ion-electron system (eV)
  ---------------------------------------------------
  alpha Z        PSCENC =         0.02953063
  Ewald energy   TEWEN  =        -9.48330183
  -Hartree energ DENC   =       -18.22490076
  -exchange      EXHF   =         0.00000000
  -V(xc)+E(xc)   XCENC  =         4.36059574
  PAW double counting   =        17.37523501      -16.75158089
  entropy T*S    EENTRO =        -0.00000000
  eigenvalues    EBANDS =       -18.43422514
  atomic energy  EATOM  =        39.96565389
  Solvation  Ediel_sol  =         0.00000000
  ---------------------------------------------------
  free energy    TOTEN  =        -1.16299334 eV

  energy without entropy =       -1.16299334  energy(sigma->0) =       -1.16299334


--------------------------------------------------------------------------------------------------------




--------------------------------------- Iteration      1(  30)  ---------------------------------------


    POTLOK:  cpu time    1.9193: real time    1.9224
    SETDIJ:  cpu time    0.0158: real time    0.0158
     EDDAV:  cpu time    0.3022: real time    0.3029
       DOS:  cpu time    0.0001: real time    0.0001
    --------------------------------------------
      LOOP:  cpu time    2.2374: real time    2.2412

 eigenvalue-minimisations  :    30
 total energy-change (2. order) :-0.4837223E-06  (-0.6218626E-07)
 number of electron       2.9999997 magnetization       0.9999998
 augmentation part       -0.0741020 magnetization       0.0148820

 Free energy of the ion-electron system (eV)
  ---------------------------------------------------
  alpha Z        PSCENC =         0.02953063
  Ewald energy   TEWEN  =        -9.48330183
  -Hartree energ DENC   =       -18.22494081
  -exchange      EXHF   =         0.00000000
  -V(xc)+E(xc)   XCENC  =         4.36062819
  PAW double counting   =        17.37546052      -16.75180656
  entropy T*S    EENTRO =        -0.00000000
  eigenvalues    EBANDS =       -18.43421786
  atomic energy  EATOM  =        39.96565389
  Solvation  Ediel_sol  =         0.00000000
  ---------------------------------------------------
  free energy    TOTEN  =        -1.16299383 eV

  energy without entropy =       -1.16299383  energy(sigma->0) =       -1.16299383


--------------------------------------------------------------------------------------------------------




 average (electrostatic) potential at core
  the test charge radii are     0.9943  0.5201
  (the norm of the test charge is              1.0000)
       1 -45.4175       2 -36.0797



 E-fermi :  -5.4009     XC(G=0):  -0.8669     alpha+bet : -0.1365

 Fermi energy:        -5.4009464611

 spin component 1

 k-point     1 :       0.0000    0.0000    0.0000
  band No.  band energies     occupation 
      1      -7.4818      1.00000
      2      -5.4678      1.00000
      3      -1.8856      0.00000
      4      -1.8856      0.00000
      5      -1.8646      0.00000
      6      -0.2650      0.00000
 Fermi energy:        -5.4009464611

 spin component 2

 k-point     1 :       0.0000    0.0000    0.0000
  band No.  band energies     occupation 
      1      -5.4846      1.00000
      2      -1.9769      0.00000
      3      -1.8749      0.00000
      4      -1.8749      0.00000
      5      -0.4681      0.00000
      6       0.2405      0.00000


--------------------------------------------------------------------------------------------------------


 soft charge-density along one line, spin component           1
         0         1         2         3         4         5         6         7         8         9
 total charge-density along one line

 soft charge-density along one line, spin component           2
         0         1         2         3         4         5         6         7         8         9
 total charge-density along one line

 pseudopotential strength for first ion, spin component:           1
  5.280 -13.446   0.000   0.001  -0.000  -0.000  -0.003   0.000
-13.446  35.127  -0.000  -0.003   0.000   0.000   0.008  -0.000
  0.000  -0.000  -0.418  -0.000   0.000   1.019   0.000  -0.000
  0.001  -0.003  -0.000  -0.418   0.000   0.000   1.019  -0.000
 -0.000   0.000   0.000   0.000  -0.418  -0.000  -0.000   1.019
 -0.000   0.000   1.019   0.000  -0.000  -0.867  -0.000   0.000
 -0.003   0.008   0.000   1.019  -0.000  -0.000  -0.867   0.000
  0.000  -0.000  -0.000  -0.000   1.019   0.000   0.000  -0.867
 pseudopotential strength for first ion, spin component:           2
  5.279 -13.444  -0.000  -0.001   0.000   0.000   0.003  -0.000
-13.444  35.123   0.000   0.003  -0.000  -0.000  -0.007   0.000
 -0.000   0.000  -0.418   0.000  -0.000   1.021  -0.000   0.000
 -0.001   0.003   0.000  -0.418  -0.000  -0.000   1.021   0.000
  0.000  -0.000  -0.000  -0.000  -0.418   0.000   0.000   1.021
  0.000  -0.000   1.021  -0.000   0.000  -0.872   0.000  -0.000
  0.003  -0.007  -0.000   1.021   0.000   0.000  -0.872  -0.000
 -0.000   0.000   0.000   0.000   1.021  -0.000  -0.000  -0.872
 total augmentation occupancy for first ion, spin component:           1
  1.995  -0.000   0.000   0.001  -0.000   0.000   0.000   0.000
 -0.000   0.000  -0.000  -0.000   0.000  -0.000  -0.000  -0.000
  0.000  -0.000   0.000   0.000  -0.000   0.000   0.000  -0.000
  0.001  -0.000   0.000   0.002  -0.000   0.000   0.000  -0.000
 -0.000   0.000  -0.000  -0.000   0.000  -0.000  -0.000   0.000
  0.000  -0.000   0.000   0.000  -0.000   0.000   0.000  -0.000
  0.000  -0.000   0.000   0.000  -0.000   0.000   0.000  -0.000
  0.000  -0.000  -0.000  -0.000   0.000  -0.000  -0.000   0.000
 total augmentation occupancy for first ion, spin component:           2
  0.007  -0.000   0.000   0.038  -0.000   0.000   0.002  -0.000
 -0.000   0.000  -0.000  -0.000   0.000  -0.000  -0.000   0.000
  0.000  -0.000   0.000   0.000  -0.000   0.000   0.000  -0.000
  0.038  -0.000   0.000   0.001  -0.000   0.000   0.000   0.000
 -0.000   0.000  -0.000  -0.000   0.000  -0.000  -0.000  -0.000
  0.000  -0.000   0.000   0.000  -0.000   0.000   0.000  -0.000
  0.002  -0.000   0.000   0.000  -0.000   0.000   0.000   0.000
 -0.000   0.000  -0.000   0.000  -0.000  -0.000   0.000  -0.000


------------------------ aborting loop because EDIFF is reached ----------------------------------------





 total charge

# of ion       s       p       d       tot
------------------------------------------
    1        0.670   0.000   0.000   0.670
    2        0.379   0.000   0.000   0.379
--------------------------------------------------
tot          1.049   0.000   0.000   1.050



 magnetization (x)

# of ion       s       p       d       tot
------------------------------------------
    1        0.002   0.000   0.000   0.003
    2        0.379   0.000   0.000   0.379
--------------------------------------------------
tot          0.381   0.000   0.000   0.382

    CHARGE:  cpu time    0.0665: real time    0.0667
    FORLOC:  cpu time    0.0490: real time    0.0491
    FORNL :  cpu time    0.1135: real time    0.1137
    STRESS:  cpu time    0.4292: real time    0.4300
    FORCOR:  cpu time    1.9042: real time    1.9071
    FORHAR:  cpu time    0.2232: real time    0.2236
    MIXING:  cpu time    0.1175: real time    0.1180
    OFIELD:  cpu time    0.0000: real time    0.0000

  FORCE on cell =-STRESS in cart. coord.  units (eV):
  Direction    XX          YY          ZZ          XY          YZ          ZX
  --------------------------------------------------------------------------------------
  Alpha Z     0.02953     0.02953     0.02953
  Ewald      -5.51229    -5.51229     1.54129     0.00000     0.00000     0.00000
  Hartree     4.24168     4.24168     9.74156     0.00000     0.00000    -0.00000
  E(xc)      -6.25197    -6.25197    -6.24009     0.00000    -0.00000     0.00000
  Local     -12.73361   -12.73361   -25.30035    -0.00000    -0.00000     0.00000
  n-local     7.10668     7.10668     7.10547     0.00000     0.00000    -0.00000
  augment    -0.77798    -0.77798    -0.77793     0.00000    -0.00000     0.00000
  Kinetic    13.87644    13.87644    13.85222    -0.00000    -0.00000    -0.00000
  Fock        0.00000     0.00000     0.00000     0.00000     0.00000     0.00000
  -------------------------------------------------------------------------------------
  Total      -0.02153    -0.02153    -0.04830     0.00000    -0.00000    -0.00000
  in kB      -0.03040    -0.03040    -0.06820     0.00000    -0.00000    -0.00000
  external pressure =       -0.04 kB  Pullay stress =        0.00 kB


 VOLUME and BASIS-vectors are now :
 -----------------------------------------------------------------------------
  energy-cutoff  :      500.00
  volume of cell :     1134.83
      direct lattice vectors                 reciprocal lattice vectors
    10.000000000  0.000000000  0.000000000     0.100000000  0.000000000  0.000000000
     0.000000000 10.000000000  0.000000000     0.000000000  0.100000000  0.000000000
     0.000000000  0.000000000 11.348270000     0.000000000  0.000000000  0.088119158

  length of vectors
    10.000000000 10.000000000 11.348270000     0.100000000  0.100000000  0.088119158


 FORCES acting on ions
    electron-ion (+dipol)            ewald-force                    non-local-force                 convergence-correction
 -----------------------------------------------------------------------------------------------
   -.442E-07 0.175E-06 -.146E+01   -.162E-17 0.475E-17 0.147E+01   0.237E-07 -.117E-06 -.215E-01   0.189E-07 -.630E-07 -.192E-03
   -.529E-09 0.341E-07 0.148E+01   -.116E-17 -.918E-18 -.147E+01   0.987E-10 0.101E-07 0.511E-03   0.464E-08 -.141E-07 0.866E-04
 -----------------------------------------------------------------------------------------------
   -.447E-07 0.209E-06 0.211E-01   -.278E-17 0.383E-17 0.000E+00   0.238E-07 -.107E-06 -.210E-01   0.236E-07 -.771E-07 -.105E-03


 POSITION                                       TOTAL-FORCE (eV/Angst)
 -----------------------------------------------------------------------------------
      5.00000      5.00000      7.62414        -0.000000     -0.000000     -0.009901
      5.00000      5.00000      3.72413         0.000000      0.000000      0.009901
 -----------------------------------------------------------------------------------
    total drift:                                0.000000      0.000000     -0.000026


--------------------------------------------------------------------------------------------------------



  FREE ENERGIE OF THE ION-ELECTRON SYSTEM (eV)
  ---------------------------------------------------
  free  energy   TOTEN  =        -1.16299383 eV

  energy  without entropy=       -1.16299383  energy(sigma->0) =       -1.16299383



--------------------------------------------------------------------------------------------------------


    POTLOK:  cpu time    1.9471: real time    1.9502


--------------------------------------------------------------------------------------------------------


     LOOP+:  cpu time   66.5481: real time   67.5843
    4ORBIT:  cpu time    0.0000: real time    0.0000



 total charge

# of ion       s       p       d       tot
------------------------------------------
    1        0.670   0.000   0.000   0.670
    2        0.379   0.000   0.000   0.379
--------------------------------------------------
tot          1.049   0.000   0.000   1.050



 magnetization (x)

# of ion       s       p       d       tot
------------------------------------------
    1        0.002   0.000   0.000   0.003
    2        0.379   0.000   0.000   0.379
--------------------------------------------------
tot          0.381   0.000   0.000   0.382


 total amount of memory used by VASP MPI-rank0   237460. kBytes
=======================================================================

   base      :      30000. kBytes
   nonlr-proj:        219. kBytes
   fftplans  :      55484. kBytes
   grid      :     146212. kBytes
   one-center:         12. kBytes
   wavefun   :       5533. kBytes

  
  
 General timing and accounting informations for this job:
 ========================================================
  
                  Total CPU time used (sec):       67.936
                            User time (sec):       67.369
                          System time (sec):        0.566
                         Elapsed time (sec):       72.746
  
                   Maximum memory used (kb):      648040.
                   Average memory used (kb):          N/A
  
                          Minor page faults:       168875
                          Major page faults:            0
                 Voluntary context switches:         2070
