 vasp.6.2.1 16May21 (build Dec 20 2021 17:02:34) complex                         
 executed on             LinuxGNU date 2026.02.11  21:09:20
 running on    1 total cores
 distrk:  each k-point on    1 cores,    1 groups
 distr:  one band on NCORE=   1 cores,    1 groups


--------------------------------------------------------------------------------------------------------


 INCAR:
   ENCUT = 500.000000
   SIGMA = 0.010000
   EDIFF = 1.00e-06
   ALGO = Normal
   GGA = PE
   PREC = Normal
   IBRION = -1
   ICHARG = 2
   ISMEAR = 0
   ISTART = 0
   ISYM = 0
   LORBIT = 11
   NELM = 100
   NELMIN = 4
   NPAR = 1
   NSW = 0
   LCHARG = .FALSE.
   LWAVE = .FALSE.
   LREAL = Auto
   ISPIN = 2
   MAGMOM = 1*0.8000 1*0.2000

 POTCAR:    PAW_PBE Be 06Sep2000                  
 POTCAR:    PAW_PBE H 15Jun2001                   
 POTCAR:    PAW_PBE Be 06Sep2000                  
   VRHFIN =Be: s2p0                                                                                 
   LEXCH  = PE                                                                                      
   EATOM  =    27.4793 eV,    2.0197 Ry                                                             
                                                                                                    
   TITEL  = PAW_PBE Be 06Sep2000                                                                    
   LULTRA =        F    use ultrasoft PP ?                                                          
   IUNSCR =        1    unscreen: 0-lin 1-nonlin 2-no                                               
   RPACOR =    1.580    partial core radius                                                         
   POMASS =    9.013; ZVAL   =    2.000    mass and valenz                                          
   RCORE  =    1.900    outmost cutoff radius                                                       
   RWIGS  =    1.880; RWIGS  =    0.995    wigner-seitz radius (au A)                               
   ENMAX  =  247.543; ENMIN  =  185.658 eV                                                          
   ICORE  =        2    local potential                                                             
   LCOR   =        T    correct aug charges                                                         
   LPAW   =        T    paw PP                                                                      
   EAUG   =  318.781                                                                                
   DEXC   =    0.000                                                                                
   RMAX   =    1.944    core radius for proj-oper                                                   
   RAUG   =    1.300    factor for augmentation sphere                                              
   RDEP   =    2.003    radius for radial grids                                                     
   RDEPT  =    1.802    core radius for aug-charge                                                  
                                                                                                    
   Atomic configuration                                                                             
    4 entries                                                                                       
     n  l   j            E        occ.                                                              
     1  0  0.50      -106.2287   2.0000                                                             
     2  0  0.50        -5.6162   1.9900                                                             
     2  1  0.50        -2.0244   0.0100                                                             
     3  2  1.50        -1.3606   0.0000                                                             
   Description                                                                                      
     l       E           TYP  RCUT    TYP  RCUT                                                     
     0     -5.6161739     23  1.900                                                                 
     0     27.2116520     23  1.900                                                                 
     1     -2.0243505     23  1.900                                                                 
     1     27.2116520     23  1.900                                                                 
     2     -1.3605826     15  1.500                                                                 
  local pseudopotential read in
  partial core-charges read in
  partial kinetic energy density read in
  atomic valenz-charges read in
  non local Contribution for L=           0  read in
    real space projection operators read in
  non local Contribution for L=           0  read in
    real space projection operators read in
  non local Contribution for L=           1  read in
    real space projection operators read in
  non local Contribution for L=           1  read in
    real space projection operators read in
    PAW grid and wavefunctions read in

   number of l-projection  operators is LMAX  =           4
   number of lm-projection operators is LMMAX =           8

 POTCAR:    PAW_PBE H 15Jun2001                   
   VRHFIN =H: ultrasoft test                                                                        
   LEXCH  = PE                                                                                      
   EATOM  =    12.4884 eV,    0.9179 Ry                                                             
                                                                                                    
   TITEL  = PAW_PBE H 15Jun2001                                                                     
   LULTRA =        F    use ultrasoft PP ?                                                          
   IUNSCR =        0    unscreen: 0-lin 1-nonlin 2-no                                               
   RPACOR =    0.000    partial core radius                                                         
   POMASS =    1.000; ZVAL   =    1.000    mass and valenz                                          
   RCORE  =    1.100    outmost cutoff radius                                                       
   RWIGS  =    0.700; RWIGS  =    0.370    wigner-seitz radius (au A)                               
   ENMAX  =  250.000; ENMIN  =  200.000 eV                                                          
   RCLOC  =    0.701    cutoff for local pot                                                        
   LCOR   =        T    correct aug charges                                                         
   LPAW   =        T    paw PP                                                                      
   EAUG   =  400.000                                                                                
   RMAX   =    1.123    core radius for proj-oper                                                   
   RAUG   =    1.200    factor for augmentation sphere                                              
   RDEP   =    1.112    radius for radial grids                                                     
   RDEPT  =    0.926    core radius for aug-charge                                                  
                                                                                                    
   Atomic configuration                                                                             
    2 entries                                                                                       
     n  l   j            E        occ.                                                              
     1  0  0.50        -6.4927   1.0000                                                             
     2  1  0.50        -3.4015   0.0000                                                             
   Description                                                                                      
     l       E           TYP  RCUT    TYP  RCUT                                                     
     0     -6.4927494     23  1.100                                                                 
     0      6.8029130     23  1.100                                                                 
     1     -4.0817478     23  1.100                                                                 
  local pseudopotential read in
  atomic valenz-charges read in
  non local Contribution for L=           0  read in
    real space projection operators read in
  non local Contribution for L=           0  read in
    real space projection operators read in
  non local Contribution for L=           1  read in
    real space projection operators read in
    PAW grid and wavefunctions read in

   number of l-projection  operators is LMAX  =           3
   number of lm-projection operators is LMMAX =           5

 -----------------------------------------------------------------------------
|                                                                             |
|               ----> ADVICE to this user running VASP <----                  |
|                                                                             |
|     You have a (more or less) 'small supercell' and for smaller cells       |
|     it is recommended to use the reciprocal-space projection scheme!        |
|     The real-space optimization is not efficient for small cells and it     |
|     is also less accurate ...                                               |
|     Therefore, set LREAL=.FALSE. in the INCAR file.                         |
|                                                                             |
 -----------------------------------------------------------------------------

 Optimization of the real space projectors (new method)

 maximal supplied QI-value         = 19.84
 optimisation between [QCUT,QGAM] = [ 11.31, 22.82] = [ 35.82,145.81] Ry 
 Optimized for a Real-space Cutoff    1.31 Angstroem

   l    n(q)    QCUT    max X(q) W(low)/X(q) W(high)/X(q)  e(spline) 
   0      9    11.310    14.494    0.13E-03    0.13E-03    0.88E-07
   0      9    11.310     6.112    0.11E-03    0.12E-03    0.76E-07
   1      8    11.310    27.202    0.47E-03    0.41E-03    0.62E-06
   1      8    11.310    10.944    0.46E-03    0.40E-03    0.59E-06
 Optimization of the real space projectors (new method)

 maximal supplied QI-value         = 34.20
 optimisation between [QCUT,QGAM] = [ 11.29, 22.57] = [ 35.68,142.71] Ry 
 Optimized for a Real-space Cutoff    1.16 Angstroem

   l    n(q)    QCUT    max X(q) W(low)/X(q) W(high)/X(q)  e(spline) 
   0      8    11.287    19.460    0.40E-03    0.73E-03    0.16E-06
   0      8    11.287    12.209    0.38E-03    0.70E-03    0.15E-06
   1      7    11.287     4.655    0.22E-03    0.25E-04    0.22E-06
  PAW_PBE Be 06Sep2000                  :
 energy of atom  1       EATOM=  -27.4793
 kinetic energy error for atom=    0.0001 (will be added to EATOM!!)
  PAW_PBE H 15Jun2001                   :
 energy of atom  2       EATOM=  -12.4884
 kinetic energy error for atom=    0.0020 (will be added to EATOM!!)


 POSCAR: Be  H
  positions in cartesian coordinates
  No initial velocities read in
 exchange correlation table for  LEXCH =        8
   RHO(1)=    0.500       N(1)  =     2000
   RHO(2)=  100.500       N(2)  =     4000



--------------------------------------------------------------------------------------------------------


 ion  position               nearest neighbor table
   1  0.500  0.500  0.520-   2 0.45
   2  0.500  0.500  0.480-   1 0.45

 -----------------------------------------------------------------------------
|                                                                             |
|           W    W    AA    RRRRR   N    N  II  N    N   GGGG   !!!           |
|           W    W   A  A   R    R  NN   N  II  NN   N  G    G  !!!           |
|           W    W  A    A  R    R  N N  N  II  N N  N  G       !!!           |
|           W WW W  AAAAAA  RRRRR   N  N N  II  N  N N  G  GGG   !            |
|           WW  WW  A    A  R   R   N   NN  II  N   NN  G    G                |
|           W    W  A    A  R    R  N    N  II  N    N   GGGG   !!!           |
|                                                                             |
|     The distance between some ions is very small. Please check the          |
|     nearest-neighbor list in the OUTCAR file.                               |
|     I HOPE YOU KNOW WHAT YOU ARE DOING!                                     |
|                                                                             |
 -----------------------------------------------------------------------------


IMPORTANT INFORMATION: All symmetrisations will be switched off!
NOSYMM: (Re-)initialisation of all symmetry stuff for point group C_1.


----------------------------------------------------------------------------------------

                                     Primitive cell                                     

  volume of cell :    1134.8270

  direct lattice vectors                    reciprocal lattice vectors
    10.000000000  0.000000000  0.000000000     0.100000000  0.000000000  0.000000000
     0.000000000 10.000000000  0.000000000     0.000000000  0.100000000  0.000000000
     0.000000000  0.000000000 11.348270000     0.000000000  0.000000000  0.088119158

  length of vectors
    10.000000000 10.000000000 11.348270000     0.100000000  0.100000000  0.088119158

  position of ions in fractional coordinates (direct lattice)
     0.500000000  0.500000000  0.519958989
     0.500000000  0.500000000  0.480041011

  ion indices of the primitive-cell ions
   primitive index   ion index
                 1           1
                 2           2

----------------------------------------------------------------------------------------



 KPOINTS: KPOINTS created by Atomic Simulation Env

Automatic generation of k-mesh.
 Grid dimensions read from file:
 generate k-points for:    1    1    1

 Generating k-lattice:

  Cartesian coordinates                     Fractional coordinates (reciprocal lattice)
     0.100000000  0.000000000  0.000000000     1.000000000  0.000000000  0.000000000
     0.000000000  0.100000000  0.000000000     0.000000000  1.000000000  0.000000000
     0.000000000  0.000000000  0.088119158     0.000000000  0.000000000  1.000000000

  Length of vectors
     0.100000000  0.100000000  0.088119158

  Shift w.r.t. Gamma in fractional coordinates (k-lattice)
     0.000000000  0.000000000  0.000000000

 
 Subroutine IBZKPT returns following result:
 ===========================================
 
 Found      1 irreducible k-points:
 
 Following reciprocal coordinates:
            Coordinates               Weight
  0.000000  0.000000  0.000000      1.000000
 
 Following cartesian coordinates:
            Coordinates               Weight
  0.000000  0.000000  0.000000      1.000000
 


--------------------------------------------------------------------------------------------------------




 Dimension of arrays:
   k-points           NKPTS =      1   k-points in BZ     NKDIM =      1   number of bands    NBANDS=      6
   number of dos      NEDOS =    301   number of ions     NIONS =      2
   non local maximal  LDIM  =      4   non local SUM 2l+1 LMDIM =      8
   total plane-waves  NPLWV = 200704
   max r-space proj   IRMAX =   1715   max aug-charges    IRDMAX=   6204
   dimension x,y,z NGX =    56 NGY =   56 NGZ =   64
   dimension x,y,z NGXF=   112 NGYF=  112 NGZF=  128
   support grid    NGXF=   112 NGYF=  112 NGZF=  128
   ions per type =               1   1
   NGX,Y,Z   is equivalent  to a cutoff of   9.31,  9.31,  9.38 a.u.
   NGXF,Y,Z  is equivalent  to a cutoff of  18.62, 18.62, 18.75 a.u.

 SYSTEM =  unknown system                          
 POSCAR =  Be  H                                   

 Startparameter for this run:
   NWRITE =      2    write-flag & timer
   PREC   = normal    normal or accurate (medium, high low for compatibility)
   ISTART =      0    job   : 0-new  1-cont  2-samecut
   ICHARG =      2    charge: 1-file 2-atom 10-const
   ISPIN  =      2    spin polarized calculation?
   LNONCOLLINEAR =      F non collinear calculations
   LSORBIT =      F    spin-orbit coupling
   INIWAV =      1    electr: 0-lowe 1-rand  2-diag
   LASPH  =      F    aspherical Exc in radial PAW
 Electronic Relaxation 1
   ENCUT  =  500.0 eV  36.75 Ry    6.06 a.u.  18.23 18.23 20.69*2*pi/ulx,y,z
   ENINI  =  500.0     initial cutoff
   ENAUG  =  400.0 eV  augmentation charge cutoff
   NELM   =    100;   NELMIN=  4; NELMDL= -5     # of ELM steps 
   EDIFF  = 0.1E-05   stopping-criterion for ELM
   LREAL  =      T    real-space projection
   NLSPLINE    = F    spline interpolate recip. space projectors
   LCOMPAT=      F    compatible to vasp.4.4
   GGA_COMPAT  = T    GGA compatible to vasp.4.4-vasp.4.6
   LMAXPAW     = -100 max onsite density
   LMAXMIX     =    2 max onsite mixed and CHGCAR
   VOSKOWN=      0    Vosko Wilk Nusair interpolation
   ROPT   =   -0.00050  -0.00050
 Ionic relaxation
   EDIFFG = 0.1E-04   stopping-criterion for IOM
   NSW    =      0    number of steps for IOM
   NBLOCK =      1;   KBLOCK =      1    inner block; outer block 
   IBRION =     -1    ionic relax: 0-MD 1-quasi-New 2-CG
   NFREE  =      0    steps in history (QN), initial steepest desc. (CG)
   ISIF   =      2    stress and relaxation
   IWAVPR =     10    prediction:  0-non 1-charg 2-wave 3-comb
   ISYM   =      0    0-nonsym 1-usesym 2-fastsym
   LCORR  =      T    Harris-Foulkes like correction to forces

   POTIM  = 0.5000    time-step for ionic-motion
   TEIN   =    0.0    initial temperature
   TEBEG  =    0.0;   TEEND  =   0.0 temperature during run
   SMASS  =  -3.00    Nose mass-parameter (am)
   estimated Nose-frequenzy (Omega)   =  0.10E-29 period in steps = 0.13E+47 mass=  -0.229E-26a.u.
   SCALEE = 1.0000    scale energy and forces
   NPACO  =    256;   APACO  = 16.0  distance and # of slots for P.C.
   PSTRESS=    0.0 pullay stress

  Mass of Ions in am
   POMASS =   9.01  1.00
  Ionic Valenz
   ZVAL   =   2.00  1.00
  Atomic Wigner-Seitz radii
   RWIGS  =  -1.00 -1.00
  virtual crystal weights 
   VCA    =   1.00  1.00
   NELECT =       3.0000    total number of electrons
   NUPDOWN=      -1.0000    fix difference up-down

 DOS related values:
   EMIN   =  10.00;   EMAX   =-10.00  energy-range for DOS
   EFERMI =   0.00
   ISMEAR =     0;   SIGMA  =   0.01  broadening in eV -4-tet -1-fermi 0-gaus

 Electronic relaxation 2 (details)
   IALGO  =     38    algorithm
   LDIAG  =      T    sub-space diagonalisation (order eigenvalues)
   LSUBROT=      F    optimize rotation matrix (better conditioning)
   TURBO    =      0    0=normal 1=particle mesh
   IRESTART =      0    0=no restart 2=restart with 2 vectors
   NREBOOT  =      0    no. of reboots
   NMIN     =      0    reboot dimension
   EREF     =   0.00    reference energy to select bands
   IMIX   =      4    mixing-type and parameters
     AMIX     =   0.40;   BMIX     =  1.00
     AMIX_MAG =   1.60;   BMIX_MAG =  1.00
     AMIN     =   0.10
     WC   =   100.;   INIMIX=   1;  MIXPRE=   1;  MAXMIX= -45

 Intra band minimization:
   WEIMIN = 0.0000     energy-eigenvalue tresh-hold
   EBREAK =  0.42E-07  absolut break condition
   DEPER  =   0.30     relativ break condition  

   TIME   =   0.40     timestep for ELM

  volume/ion in A,a.u.               =     567.41      3829.10
  Fermi-wavevector in a.u.,A,eV,Ry     =   0.226363  0.427764  0.697165  0.051240
  Thomas-Fermi vector in A             =   1.014511

 Write flags
   LWAVE        =      F    write WAVECAR
   LDOWNSAMPLE  =      F    k-point downsampling of WAVECAR
   LCHARG       =      F    write CHGCAR
   LVTOT        =      F    write LOCPOT, total local potential
   LVHAR        =      F    write LOCPOT, Hartree potential only
   LELF         =      F    write electronic localiz. function (ELF)
   LORBIT       =     11    0 simple, 1 ext, 2 COOP (PROOUT), +10 PAW based schemes


 Dipole corrections
   LMONO  =      F    monopole corrections only (constant potential shift)
   LDIPOL =      F    correct potential (dipole corrections)
   IDIPOL =      0    1-x, 2-y, 3-z, 4-all directions 
   EPSILON=  1.0000000 bulk dielectric constant

 Exchange correlation treatment:
   GGA     =    PE    GGA type
   LEXCH   =     8    internal setting for exchange type
   VOSKOWN=      0    Vosko Wilk Nusair interpolation
   LHFCALC =     F    Hartree Fock is set to
   LHFONE  =     F    Hartree Fock one center treatment
   AEXX    =    0.0000 exact exchange contribution

 Linear response parameters
   LEPSILON=     F    determine dielectric tensor
   LRPA    =     F    only Hartree local field effects (RPA)
   LNABLA  =     F    use nabla operator in PAW spheres
   LVEL    =     F    velocity operator in full k-point grid
   LINTERFAST=   F  fast interpolation
   KINTER  =     0    interpolate to denser k-point grid
   CSHIFT  =0.1000    complex shift for real part using Kramers Kronig
   OMEGAMAX=  -1.0    maximum frequency
   DEG_THRESHOLD= 0.2000000E-02 threshold for treating states as degnerate
   RTIME   =   -0.100 relaxation time in fs
  (WPLASMAI=    0.000 imaginary part of plasma frequency in eV, 0.658/RTIME)
   DFIELD  = 0.0000000 0.0000000 0.0000000 field for delta impulse in time

 Orbital magnetization related:
   ORBITALMAG=     F  switch on orbital magnetization
   LCHIMAG   =     F  perturbation theory with respect to B field
   DQ        =  0.001000  dq finite difference perturbation B field
   LLRAUG    =     F  two centre corrections for induced B field



--------------------------------------------------------------------------------------------------------


 Static calculation
 charge density and potential will be updated during run
 spin polarized calculation
 Variant of blocked Davidson
 Davidson routine will perform the subspace rotation
 perform sub-space diagonalisation
    after iterative eigenvector-optimisation
 modified Broyden-mixing scheme, WC =      100.0
 initial mixing is a Kerker type mixing with AMIX =  0.4000 and BMIX =      1.0000
 Hartree-type preconditioning will be used
 using additional bands            4
 real space projection scheme for non local part
 use partial core corrections
 calculate Harris-corrections to forces   (improved forces if not selfconsistent)
 use gradient corrections 
 use of overlap-Matrix (Vanderbilt PP)
 Gauss-broadening in eV      SIGMA  =   0.01


--------------------------------------------------------------------------------------------------------


  energy-cutoff  :      500.00
  volume of cell :     1134.83
      direct lattice vectors                 reciprocal lattice vectors
    10.000000000  0.000000000  0.000000000     0.100000000  0.000000000  0.000000000
     0.000000000 10.000000000  0.000000000     0.000000000  0.100000000  0.000000000
     0.000000000  0.000000000 11.348270000     0.000000000  0.000000000  0.088119158

  length of vectors
    10.000000000 10.000000000 11.348270000     0.100000000  0.100000000  0.088119158



 k-points in units of 2pi/SCALE and weight: KPOINTS created by Atomic Simulation Env
   0.00000000  0.00000000  0.00000000       1.000

 k-points in reciprocal lattice and weights: KPOINTS created by Atomic Simulation Env
   0.00000000  0.00000000  0.00000000       1.000

 position of ions in fractional coordinates (direct lattice) 
   0.50000000  0.50000000  0.51995899
   0.50000000  0.50000000  0.48004101

 position of ions in cartesian coordinates  (Angst):
   5.00000000  5.00000000  5.90063500
   5.00000000  5.00000000  5.44763500



--------------------------------------------------------------------------------------------------------


 k-point   1 :   0.0000 0.0000 0.0000  plane waves:   28809

 maximum and minimum number of plane-waves per node :     28809    28809

 maximum number of plane-waves:     28809
 maximum index in each direction: 
   IXMAX=   18   IYMAX=   18   IZMAX=   20
   IXMIN=  -18   IYMIN=  -18   IZMIN=  -20


 serial   3D FFT for wavefunctions
 parallel 3D FFT for charge:
    minimum data exchange during FFTs selected (reduces bandwidth)


 total amount of memory used by VASP MPI-rank0   237462. kBytes
=======================================================================

   base      :      30000. kBytes
   nonlr-proj:        221. kBytes
   fftplans  :      55484. kBytes
   grid      :     146212. kBytes
   one-center:         12. kBytes
   wavefun   :       5533. kBytes

     INWAV:  cpu time    0.0000: real time    0.0001
 Broyden mixing: mesh for mixing (old mesh)
   NGX = 37   NGY = 37   NGZ = 41
  (NGX  =112   NGY  =112   NGZ  =128)
  gives a total of  56129 points

 initial charge density was supplied:
 charge density of overlapping atoms calculated
 number of electron       3.0000000 magnetization       1.0000000
 keeping initial charge density in first step


--------------------------------------------------------------------------------------------------------


 Maximum index for non-local projection operator         1623
 Maximum index for augmentation-charges         5814 (set IRDMAX)


--------------------------------------------------------------------------------------------------------


 First call to EWALD:  gamma=   0.170
 Maximum number of real-space cells 3x 3x 3
 Maximum number of reciprocal cells 3x 3x 3

    FEWALD:  cpu time    0.0007: real time    0.0007


--------------------------------------- Iteration      1(   1)  ---------------------------------------


    POTLOK:  cpu time    3.3798: real time    3.4584
    SETDIJ:  cpu time    0.0258: real time    0.0260
     EDDAV:  cpu time    0.5609: real time    0.5645
       DOS:  cpu time    0.0001: real time    0.0001
    --------------------------------------------
      LOOP:  cpu time    3.9667: real time    4.0490

 eigenvalue-minimisations  :    24
 total energy-change (2. order) : 0.4396022E+02  (-0.3764163E+02)
 number of electron       3.0000000 magnetization       1.0000000
 augmentation part        3.0000000 magnetization       1.0000000

 Free energy of the ion-electron system (eV)
  ---------------------------------------------------
  alpha Z        PSCENC =         0.02953063
  Ewald energy   TEWEN  =        46.05245804
  -Hartree energ DENC   =       -31.47407594
  -exchange      EXHF   =         0.00000000
  -V(xc)+E(xc)   XCENC  =         4.62426514
  PAW double counting   =        17.31218835      -16.66372788
  entropy T*S    EENTRO =        -0.00000000
  eigenvalues    EBANDS =       -15.88607643
  atomic energy  EATOM  =        39.96565389
  Solvation  Ediel_sol  =         0.00000000
  ---------------------------------------------------
  free energy    TOTEN  =        43.96021580 eV

  energy without entropy =       43.96021580  energy(sigma->0) =       43.96021580


--------------------------------------------------------------------------------------------------------




--------------------------------------- Iteration      1(   2)  ---------------------------------------


     EDDAV:  cpu time    0.9709: real time    0.9772
       DOS:  cpu time    0.0002: real time    0.0002
    --------------------------------------------
      LOOP:  cpu time    0.9710: real time    0.9773

 eigenvalue-minimisations  :    48
 total energy-change (2. order) :-0.1898387E+02  (-0.1898387E+02)
 number of electron       3.0000000 magnetization       1.0000000
 augmentation part        3.0000000 magnetization       1.0000000

 Free energy of the ion-electron system (eV)
  ---------------------------------------------------
  alpha Z        PSCENC =         0.02953063
  Ewald energy   TEWEN  =        46.05245804
  -Hartree energ DENC   =       -31.47407594
  -exchange      EXHF   =         0.00000000
  -V(xc)+E(xc)   XCENC  =         4.62426514
  PAW double counting   =        17.31218835      -16.66372788
  entropy T*S    EENTRO =        -0.00000000
  eigenvalues    EBANDS =       -34.86994580
  atomic energy  EATOM  =        39.96565389
  Solvation  Ediel_sol  =         0.00000000
  ---------------------------------------------------
  free energy    TOTEN  =        24.97634643 eV

  energy without entropy =       24.97634643  energy(sigma->0) =       24.97634643


--------------------------------------------------------------------------------------------------------




--------------------------------------- Iteration      1(   3)  ---------------------------------------


     EDDAV:  cpu time    0.7439: real time    0.7485
       DOS:  cpu time    0.0001: real time    0.0001
    --------------------------------------------
      LOOP:  cpu time    0.7440: real time    0.7486

 eigenvalue-minimisations  :    36
 total energy-change (2. order) :-0.8538278E+00  (-0.8538278E+00)
 number of electron       3.0000000 magnetization       1.0000000
 augmentation part        3.0000000 magnetization       1.0000000

 Free energy of the ion-electron system (eV)
  ---------------------------------------------------
  alpha Z        PSCENC =         0.02953063
  Ewald energy   TEWEN  =        46.05245804
  -Hartree energ DENC   =       -31.47407594
  -exchange      EXHF   =         0.00000000
  -V(xc)+E(xc)   XCENC  =         4.62426514
  PAW double counting   =        17.31218835      -16.66372788
  entropy T*S    EENTRO =        -0.00000000
  eigenvalues    EBANDS =       -35.72377364
  atomic energy  EATOM  =        39.96565389
  Solvation  Ediel_sol  =         0.00000000
  ---------------------------------------------------
                                                                                                                                                                                                                                                                                                                                                                                                                                                                                                                                                                                                                                                                                                                                                                                                                                                                                                                                                                                                                                                                                                                                                                                                                                                                                                                                                                                                                                                                                                                                                                                                                                                                                                                                                                                                                                                                                                                                                                                                                                                                                                                                                                                                                                                                                                                                                                                                                                                                                                                                                                                                                                                                                                                                                                                                                                                                                                                                                                                                                                                                                                                                                                                                                                                                                                                                                                                                                                                                                                                                                                                                                                                                                                                                                                                                                                                                                                                                                                                                                                                                                                                                                                                                                                                                                                                                                                                                                                                                                                                                                                                                                                                                                                                                                                                                                                                                                                                                                                                                                                                                                                                                                                                                                                                                                                                                                                                                                                                                                                                                                                                                                                                                                                                                                                                                                                                                                                                                                                                                                                                                                                                                                                                                                                                                                                                                                                                                                                                                                                                                                                                                                                                                                                                                                                                                                                                                                                                                                                                                                                                                                                                                                                                                                                                                                                                                                                                                                                                                                                                                                                                                                                                                                                                                                                                                                                                                                                                                                                                                                                                                                                                                                                                                                                                                                                                                                                                                                                                                                                                                                                                                                                                                                                                                                                                                                                                                                                                                                                                                                                                                                                                                                                                                                                                                                                                                                                                                                                                                                                                                                                                                                                                                                                                                                                                                                                                                                                                                                                                                                                                                                                                                                                                                                                                                                                                                                                                                                                                                                                                                                                                                                                                                                                                                                                                                                                                                                                                                                                                                                                                                                                                                                                                                                                                                                                                                                                                                                                                                                                                                                                                                                                                                                                                                                                                                                                                                                                                                                                                                                                                                                                                                                                                                                                                                                                                                                                                                                                                                                                                                                                                                                                                                                                                                                                                                                                                                                                                                                                                                                                                                                                                                                                                                                                                                                                                                                                                                                                                                                                                                                                                                                                                                                                                                                                                                                                                                                                                                                                                                                                                                                                                                                                                                                                                                                                                                                                                                                                                                                                                                                                                                                                                                                                                                                                                                                                                                                                                                                                                                                                                                                                                                                                                                                                                                                                                                                                                                                                                                                                                                                                                                                                                                                                                                                                                                                                                                                                                                                                                                                                                                                                                                                                                                                                                                                                                                                                                                                                                                                                                                                                                                                                                                                                                                                                                                                                                                                                                                                                                                                                                                                                                                                                                                                                                                                                                                                                                                                                                                                                                                                                                                                                                                                                                                                                                                                                                                                                                                                                                                                                                                                                                                                                                                                                                                                                                                                                                                                                                                                                                                                                                                                                                                                                                                                                                                                                                                                                                                                                                                                                                                                                                                                                                                                                                                                                                                                                                                                                                                                                                                                                                                                                                                                                                                                                                                                                                                                                                                                                                                                                                                                                                                                                                                                                                                                                                                                                                                                                                                                                                                                                                                                                                                                                                                                                                                                                                                                                                                                                                                                                                                                                                                                                                                                                                                                                                                                                                                                                                                                                                                                                                                                                                                                                                                                                                                                                                                                                                                                                                                                                                                                                                                                                                                                                                                                                                                                                                                                                                                                                                                                                                                                                                                                                                                                                                                                                                                                                                                                                                                                                                                                                                                                                                                                                                                                                                                                                                                                                                                                                                                                                                                                                                                                                                                                                                                                                                                                                                                                                                                                                                                                                                                                                                                                                                                                                                                                                                                                                                                                                                                                                                                                                                                                                                                                                                                                                                                                                                                                                                                                                                                                                                                                                                                                                                                                                                                                                                                                                                                                                                                                                                                                                                                                                                                                                                                                                                                                                                                                                                                                                                                                                                                                                                                                                                                                                                                                                                                                                                                                                                                                                                                                                                                                                                                                                                                                                                                                                                                                                                                                                                                                                                                                                                                                                                                                                                                                                                                                                                                                                                                                                                                                                                                                                                                                                                                                                                                                                                                                                                                                                                                                                                                                                                                                                                                                                                                                                                                                                                                                                                                                                                                                                                                                                                                                                                                                                                                                                                                                                                                                                                                                                                                                                                                                                                                                                                                                                                                                                                                                                                                                                                                                                                                                                                                                                                                                                                                                                                                                                                                                                                                                                                                                                                                                                                                                                                                                                                                                                                                                                                                                                                                                                                                                                                                                                                                                                                                                                                                                                                                                                                                                                                                                                                                                                                                                                                                                                                                                                                                                                                                                                                                                                                                                                                                                                                                                                                                                                                                                                                                                                                                                                                                                                                                                                                                                                                                                                                                                                                                                                                                                                                                                                                                                                                                                                                                                                                                                                                                                                                                                                                                                                                                                                                                                                                                                                                                                                                                                                                                                                                                                                                                                                                                                                                                                                                                                                                                                                                                                                                                                                                                                                                                                                                                                                                                                                                                                                                                                                                                                                                                                                                                                                                                                                                                                                                                                                                                                                                                                                                                                                                                                                                                                                                                                                                                                                                                                                                                                                                                                                                                                                                                                                                                                                                                                                                                                                                                                                                                                                                                                                                                                                                                                                                                                                                                                                                                                                                                                                                                                                                                                                                                                                                                                                                                                                                                                                                                                                                                                                                                                                                                                                                                                                                                                                                                                                                                                                                                                                                                                                                                                                                                                                                                                                                                                                                                                                                                                                                                                                                                                                                                                                                                                                                                                                                                                                                                                                                                                                                                                                                                                                                                                                                                                                                                                                                                                                                                                                                                                                                                                                                                                                                                                                                                                                                                                                                                                                                                                                                                                                                                                                                                                                                                                                                                                                                                                                                                                                                                                                                                                                                                                                                                                                                                                                                                                                                                                                                                                                                                                                                                                                                                                                                                                                                                                                                                                                                                                                                                                                                                                                                                                                                                                                                                                                                                                                                                                                                                                                                                                                                                                                                                                                                                                                                                                                                                                                                                                                                                                                                                                                                                                                                                                                                                                                                                                                                                                                                                                                                                                                                                                                                                                                                                                                                                                                                                                                                                                                                                                                                                                                                ---------------------------------------------------
  alpha Z        PSCENC =         0.02953063
  Ewald energy   TEWEN  =        55.01865034
  -Hartree energ DENC   =       -43.05601925
  -exchange      EXHF   =         0.00000000
  -V(xc)+E(xc)   XCENC  =         6.17145066
  PAW double counting   =        64.81001656      -64.62362440
  entropy T*S    EENTRO =        -0.00000000
  eigenvalues    EBANDS =       -21.90449342
  atomic energy  EATOM  =        39.96565389
  Solvation  Ediel_sol  =         0.00000000
  ---------------------------------------------------
  free energy    TOTEN  =        36.41116502 eV

  energy without entropy =       36.41116502  energy(sigma->0) =       36.41116502


--------------------------------------------------------------------------------------------------------




--------------------------------------- Iteration      1(  26)  ---------------------------------------


    POTLOK:  cpu time    3.2252: real time    3.2877
    SETDIJ:  cpu time    0.0339: real time    0.0342
     EDDAV:  cpu time    0.5732: real time    0.5773
       DOS:  cpu time    0.0001: real time    0.0001
    --------------------------------------------
      LOOP:  cpu time    3.8324: real time    3.8992

 eigenvalue-minimisations  :    24
 total energy-change (2. order) :-0.6267242E-07  (-0.9271048E-08)
 number of electron       2.9999991 magnetization       0.9999999
 augmentation part       -0.0671703 magnetization       0.0169001

 Free energy of the ion-electron system (eV)
  ---------------------------------------------------
  alpha Z        PSCENC =         0.02953063
  Ewald energy   TEWEN  =        55.01865034
  -Hartree energ DENC   =       -43.05590210
  -exchange      EXHF   =         0.00000000
  -V(xc)+E(xc)   XCENC  =         6.17144269
  PAW double counting   =        64.80890455      -64.62250900
  entropy T*S    EENTRO =        -0.00000000
  eigenvalues    EBANDS =       -21.90460606
  atomic energy  EATOM  =        39.96565389
  Solvation  Ediel_sol  =         0.00000000
  ---------------------------------------------------
  free energy    TOTEN  =        36.41116496 eV

  energy without entropy =       36.41116496  energy(sigma->0) =       36.41116496


--------------------------------------------------------------------------------------------------------




 average (electrostatic) potential at core
  the test charge radii are     0.9943  0.5201
  (the norm of the test charge is              1.0000)
       1 -50.7099       2 -71.0675



 E-fermi :  -4.4155     XC(G=0):  -0.5847     alpha+bet : -0.1365

 Fermi energy:        -4.4154749714

 spin component 1

 k-point     1 :       0.0000    0.0000    0.0000
  band No.  band energies     occupation 
      1      -8.8998      1.00000
      2      -4.4764      1.00000
      3      -2.3265      0.00000
      4      -2.3265      0.00000
      5      -0.3284      0.00000
      6       0.5866      0.00000
 Fermi energy:        -4.4154749714

 spin component 2

 k-point     1 :       0.0000    0.0000    0.0000
  band No.  band energies     occupation 
      1      -8.5284      1.00000
      2      -1.7497      0.00000
      3      -1.5301      0.00000
      4      -1.5301      0.00000
      5       0.0578      0.00000
      6       1.0039      0.00000


--------------------------------------------------------------------------------------------------------


 soft charge-density along one line, spin component           1
         0         1         2         3         4         5         6         7         8         9
 total charge-density along one line

 soft charge-density along one line, spin component           2
         0         1         2         3         4         5         6         7         8         9
 total charge-density along one line

 pseudopotential strength for first ion, spin component:           1
  5.723 -14.614  -0.000  -0.110   0.000   0.000   0.306  -0.000
-14.614  38.276   0.000   0.244  -0.000  -0.000  -0.699   0.000
 -0.000   0.000  -0.420   0.000   0.000   1.023  -0.000  -0.000
 -0.110   0.244   0.000  -0.422  -0.000  -0.000   1.077   0.000
  0.000  -0.000   0.000  -0.000  -0.420  -0.000   0.000   1.023
  0.000  -0.000   1.023  -0.000  -0.000  -0.851  -0.000   0.000
  0.306  -0.699  -0.000   1.077   0.000  -0.000  -1.109  -0.000
 -0.000   0.000  -0.000   0.000   1.023   0.000  -0.000  -0.851
 pseudopotential strength for first ion, spin component:           2
  5.669 -14.477   0.000  -0.137   0.000  -0.000   0.382  -0.000
-14.477  37.913  -0.000   0.310  -0.000   0.000  -0.890   0.000
  0.000  -0.000  -0.428  -0.000  -0.000   1.047   0.000   0.000
 -0.137   0.310  -0.000  -0.419  -0.000   0.000   1.055   0.000
  0.000  -0.000  -0.000  -0.000  -0.428   0.000   0.000   1.047
 -0.000   0.000   1.047   0.000   0.000  -0.936   0.000  -0.000
  0.382  -0.890   0.000   1.055   0.000   0.000  -1.018  -0.000
 -0.000   0.000   0.000   0.000   1.047  -0.000  -0.000  -0.936
 total augmentation occupancy for first ion, spin component:           1
  0.801  -0.192  -0.000   0.185  -0.000   0.000   0.099   0.000
 -0.192   0.281  -0.000   0.565  -0.000   0.000  -0.172  -0.000
 -0.000  -0.000   0.000  -0.000   0.000   0.000   0.000   0.000
  0.185   0.565  -0.000   1.621  -0.000   0.000  -0.361   0.000
 -0.000  -0.000   0.000  -0.000   0.000  -0.000   0.000   0.000
  0.000   0.000   0.000   0.000  -0.000   0.000  -0.000   0.000
  0.099  -0.172   0.000  -0.361   0.000  -0.000   0.106   0.000
  0.000  -0.000   0.000   0.000   0.000   0.000   0.000   0.000
 total augmentation occupancy for first ion, spin component:           2
  0.514   0.084  -0.000   0.668  -0.000  -0.000  -0.061  -0.000
  0.084   0.016   0.000   0.101   0.000   0.000  -0.018   0.000
 -0.000   0.000   0.000  -0.000   0.000  -0.000  -0.000  -0.000
  0.668   0.101  -0.000   0.807  -0.000   0.000  -0.091   0.000
 -0.000   0.000   0.000  -0.000   0.000  -0.000  -0.000  -0.000
 -0.000   0.000  -0.000   0.000  -0.000   0.000  -0.000   0.000
 -0.061  -0.018  -0.000  -0.091  -0.000  -0.000   0.016  -0.000
 -0.000   0.000  -0.000   0.000  -0.000   0.000  -0.000  -0.000


------------------------ aborting loop because EDIFF is reached ----------------------------------------





 total charge

# of ion       s       p       d       tot
------------------------------------------
    1        0.748   0.815   0.000   1.562
    2        0.924   0.036   0.000   0.961
--------------------------------------------------
tot          1.672   0.851   0.000   2.523



 magnetization (x)

# of ion       s       p       d       tot
------------------------------------------
    1        0.103   0.296   0.000   0.398
    2        0.043   0.013   0.000   0.056
--------------------------------------------------
tot          0.145   0.309   0.000   0.454

    CHARGE:  cpu time    0.1325: real time    0.1336
    FORLOC:  cpu time    0.0830: real time    0.0834
    FORNL :  cpu time    0.2083: real time    0.2095
    STRESS:  cpu time    0.7332: real time    0.7373
    FORCOR:  cpu time    3.3284: real time    3.3803
    FORHAR:  cpu time    0.3617: real time    0.3632
    MIXING:  cpu time    0.1512: real time    0.1521
    OFIELD:  cpu time    0.0001: real time    0.0001

  FORCE on cell =-STRESS in cart. coord.  units (eV):
  Direction    XX          YY          ZZ          XY          YZ          ZX
  --------------------------------------------------------------------------------------
  Alpha Z     0.02953     0.02953     0.02953
  Ewald      -5.07748    -5.07748    65.17362     0.00000     0.00000     0.00000
  Hartree    13.93576    13.93576    15.18436    -0.00000    -0.00000    -0.00000
  E(xc)      -8.35447    -8.35447    -8.97274    -0.00000     0.00000     0.00000
  Local     -27.88238   -27.88238   -50.29570     0.00000     0.00000     0.00000
  n-local     5.67404     5.67404    14.89627    -0.00000    -0.00000    -0.00000
  augment    -1.74181    -1.74181     0.01392    -0.00000    -0.00000    -0.00000
  Kinetic    23.33951    23.33951    41.93607     0.00000    -0.00000    -0.00000
  Fock        0.00000     0.00000     0.00000     0.00000     0.00000     0.00000
  -------------------------------------------------------------------------------------
  Total      -0.07729    -0.07729    77.96531    -0.00000    -0.00000    -0.00000
  in kB      -0.10912    -0.10912   110.07339    -0.00000    -0.00000    -0.00000
  external pressure =       36.62 kB  Pullay stress =        0.00 kB


 VOLUME and BASIS-vectors are now :
 -----------------------------------------------------------------------------
  energy-cutoff  :      500.00
  volume of cell :     1134.83
      direct lattice vectors                 reciprocal lattice vectors
    10.000000000  0.000000000  0.000000000     0.100000000  0.000000000  0.000000000
     0.000000000 10.000000000  0.000000000     0.000000000  0.100000000  0.000000000
     0.000000000  0.000000000 11.348270000     0.000000000  0.000000000  0.088119158

  length of vectors
    10.000000000 10.000000000 11.348270000     0.100000000  0.100000000  0.088119158


 FORCES acting on ions
    electron-ion (+dipol)            ewald-force                    non-local-force                 convergence-correction
 -----------------------------------------------------------------------------------------------
   0.130E-06 0.593E-07 -.424E+02   0.321E-17 0.760E-17 0.183E+03   -.204E-06 -.790E-07 0.563E+02   -.101E-06 -.213E-07 -.282E-04
   0.257E-06 0.795E-07 -.962E+01   -.592E-17 -.370E-17 -.183E+03   0.146E-06 0.480E-07 -.424E+01   -.124E-06 -.384E-07 -.809E-05
 -----------------------------------------------------------------------------------------------
   0.387E-06 0.139E-06 -.520E+02   -.271E-17 0.390E-17 0.000E+00   -.578E-07 -.310E-07 0.520E+02   -.225E-06 -.597E-07 -.363E-04


 POSITION                                       TOTAL-FORCE (eV/Angst)
 -----------------------------------------------------------------------------------
      5.00000      5.00000      5.87263        -0.000000     -0.000000    196.559183
      5.00000      5.00000      5.47564         0.000000      0.000000   -196.559183
 -----------------------------------------------------------------------------------
    total drift:                                0.000000      0.000000      0.000427


--------------------------------------------------------------------------------------------------------



  FREE ENERGIE OF THE ION-ELECTRON SYSTEM (eV)
  ---------------------------------------------------
  free  energy   TOTEN  =        36.41116496 eV

  energy  without entropy=       36.41116496  energy(sigma->0) =       36.41116496



--------------------------------------------------------------------------------------------------------


    POTLOK:  cpu time    2.9615: real time    2.9777


--------------------------------------------------------------------------------------------------------


     LOOP+:  cpu time  100.7540: real time  101.9064
                                                                                                                                                                                                                                                                                                                                                                                                                                                                                                                                                                                                                                                                                                                                                                                                                                                                                                                                                                                                                                                                                                                                                                                                                                                                                                                                                                                                                                                                                                                                                                                                                                                                                                                                                                                                                                                                                                                                                                                                                                                                                                                                                                                                                                                                                                                                                                                                                                                                                                                                                                                                                                                                                                                                                                                                                                                                                                                                                                                                                                                                                                                                                                                                                                                                                                                                                                                                                                                                                                                                                                                                                                                                                                                                                                                                                                                                                                                                                                                                                                                                                                                                                                                                                                                                                                                                                                                                                                                                                                                                                                                                                                                                                                                                                                                                                                                                                                                                                                                                                                                                                                                                                                                                                                                                                                                                                                                                                                                                                                                                                                                                                                                                                                                                                                                                  

--------------------------------------- Iteration      1(   1)  ---------------------------------------


    POTLOK:  cpu time    3.2022: real time    3.2606
    SETDIJ:  cpu time    0.0297: real time    0.0299
     EDDAV:  cpu time    0.6284: real time    0.6350
       DOS:  cpu time    0.0001: real time    0.0002
    --------------------------------------------
      LOOP:  cpu time    3.8605: real time    3.9257

 eigenvalue-minimisations  :    24
 total energy-change (2. order) : 0.4756662E+02  (-0.3752148E+02)
 number of electron       3.0000000 magnetization       1.0000000
 augmentation part        3.0000000 magnetization       1.0000000

 Free energy of the ion-electron system (eV)
  ---------------------------------------------------
  alpha Z        PSCENC =         0.02953063
  Ewald energy   TEWEN  =        49.60840324
  -Hartree energ DENC   =       -31.53952610
  -exchange      EXHF   =         0.00000000
  -V(xc)+E(xc)   XCENC  =         4.61896801
  PAW double counting   =        17.31218835      -16.66372788
  entropy T*S    EENTRO =        -0.00000000
  eigenvalues    EBANDS =       -15.76487112
  atomic energy  EATOM  =        39.96565389
  Solvation  Ediel_sol  =         0.00000000
  ---------------------------------------------------
  free energy    TOTEN  =        47.56661902 eV

  energy without entropy =       47.56661902  energy(sigma->0) =       47.56661902


--------------------------------------------------------------------------------------------------------




--------------------------------------- Iteration      1(   2)  ---------------------------------------


     EDDAV:  cpu time    0.9140: real time    0.9244
       DOS:  cpu time    0.0001: real time    0.0001
    --------------------------------------------
      LOOP:  cpu time    0.9141: real time    0.9245

 eigenvalue-minimisations  :    48
 total energy-change (2. order) :-0.1876434E+02  (-0.1876434E+02)
 number of electron       3.0000000 magnetization       1.0000000
 augmentation part        3.0000000 magnetization       1.0000000

 Free energy of the ion-electron system (eV)
  ---------------------------------------------------
  alpha Z        PSCENC =         0.02953063
  Ewald energy   TEWEN  =        49.60840324
  -Hartree energ DENC   =       -31.53952610
  -exchange      EXHF   =         0.00000000
  -V(xc)+E(xc)   XCENC  =         4.61896801
  PAW double counting   =        17.31218835      -16.66372788
  entropy T*S    EENTRO =        -0.00000000
  eigenvalues    EBANDS =       -34.52921337
  atomic energy  EATOM  =        39.96565389
  Solvation  Ediel_sol  =         0.00000000
  ---------------------------------------------------
  free energy    TOTEN  =        28.80227678 eV

  energy without entropy =       28.80227678  energy(sigma->0) =       28.80227678


--------------------------------------------------------------------------------------------------------




--------------------------------------- Iteration      1(   3)  ---------------------------------------


     EDDAV:  cpu time    0.7275: real time    0.7343
       DOS:  cpu time    0.0001: real time    0.0001
    --------------------------------------------
      LOOP:  cpu time    0.7276: real time    0.7345

 eigenvalue-minimisations  :    36
 total energy-change (2. order) :-0.8534366E+00  (-0.8534366E+00)
 number of electron       3.0000000 magnetization       1.0000000
 augmentation part        3.0000000 magnetization       1.0000000

 Free energy of the ion-electron system (eV)
  ---------------------------------------------------
  alpha Z        PSCENC =         0.02953063
  Ewald energy   TEWEN  =        49.60840324
  -Hartree energ DENC   =       -31.53952610
  -exchange      EXHF   =         0.00000000
  -V(xc)+E(xc)   XCENC  =         4.61896801
  PAW double counting   =        17.31218835      -16.66372788
  entropy T*S    EENTRO =        -0.00000000
  eigenvalues    EBANDS =       -35.38264998
  atomic energy  EATOM  =        39.96565389
  Solvation  Ediel_sol  =         0.00000000
  ---------------------------------------------------
  free energy    TOTEN  =        27.94884017   rms(prec ) = 0.53326E+00
  weight for this iteration     100.00

 eigenvalues of (default mixing * dielectric matrix)
  average eigenvalue GAMMA=   1.1071
  1.1071

 Free energy of the ion-electron system (eV)
  ---------------------------------------------------
  alpha Z        PSCENC =         0.02953063
  Ewald energy   TEWEN  =        73.32412240
  -Hartree energ DENC   =       -36.25565262
  -exchange      EXHF   =         0.00000000
  -V(xc)+E(xc)   XCENC  =         6.76030943
  PAW double counting   =        28.30257982      -27.95408159
  entropy T*S    EENTRO =        -0.00000000
  eigenvalues    EBANDS =       -26.81989653
  atomic energy  EATOM  =        39.96565389
  Solvation  Ediel_sol  =         0.00000000
  ---------------------------------------------------
  free energy    TOTEN  =        57.35256543 eV

  energy without entropy =       57.35256543  energy(sigma->0) =       57.35256543


--------------------------------------------------------------------------------------------------------




--------------------------------------- Iteration      1(   7)  ---------------------------------------


    POTLOK:  cpu time    3.3380: real time    3.3705
    SETDIJ:  cpu time    0.0269: real time    0.0270
     EDDAV:  cpu time    0.7296: real time    0.7355
       DOS:  cpu time    0.0002: real time    0.0474
    CHARGE:  cpu time    0.1379: real time    0.1454
    MIXING:  cpu time    0.0629: real time    0.0633
    --------------------------------------------
      LOOP:  cpu time    4.2954: real time    4.3891

 eigenvalue-minimisations  :    36
 total energy-change (2. order) :-0.3610764E+00  (-0.1978394E+00)
 number of electron       2.9999991 magnetization       0.9999999
 augmentation part       -0.0887233 magnetization       0.0139811

 Broyden mixing:
  rms(total) = 0.13809E+00    rms(broyden)= 0.13803E+00
  rms(prec ) = 0.15825E+00
  weight for this iteration     100.00

 eigenvalues of (default mixing * dielectric matrix)
  average eigenvalue GAMMA=   1.2103
  0.7288  1.6919

 Free energy of the ion-electron system (eV)
  ---------------------------------------------------
  alpha Z        PSCENC =         0.02953063
  Ewald energy   TEWEN  =        73.32412240
  -Hartree energ DENC   =       -40.81846627
  -exchange      EXHF   =         0.00000000
  -V(xc)+E(xc)   XCENC  =         6.57718076
  PAW double counting   =        52.11828066      -51.94917470
  entropy T*S    EENTRO =        -0.00000000
  eigenvalues    EBANDS =       -22.25563835
  atomic energy  EATOM  =        39.96565389
  Solvation  Ediel_sol  =         0.00000000
  ---------------------------------------------------
  free energy    TOTEN  =        56.99148903 eV

  energy without entropy =       56.99148903  energy(sigma->0) =       56.99148903


--------------------------------------------------------------------------------------------------------




--------------------------------------- Iteration      1(   8)  ---------------------------------------


    POTLOK:  cpu time    3.2329: real time    3.2603
    SETDIJ:  cpu time    0.0238: real time    0.0239
     EDDAV:  cpu time    0.4973: real time    0.5028
       DOS:  cpu time    0.0001: real time    0.0001
    CHARGE:  cpu time    0.1237: real time    0.1247
    MIXING:  cpu time    0.0640: real time    0.0647
    --------------------------------------------
      LOOP:  cpu time    3.9417: real time    3.9764

 eigenvalue-minimisations  :    24
 total energy-change (2. order) :-0.3659666E+00  (-0.1506449E-01)
 number of electron       2.9999991 magnetization       0.9999999
 augmentation part       -0.0915074 magnetization       0.0175848

 Broyden mixing:
  rms(total) = 0.56551E-01    rms(broyden)= 0.56525E-01
  rms(prec ) = 0.72990E-01
  weight for this iteration     100.00

 eigenvalues of (default mixing * dielectric matrix)
  average eigenvalue GAMMA=   1.1076
  1.6945  0.9631  0.6652

 Free energy of the ion-electron system (eV)
  ---------------------------------------------------
  alpha Z        PSCENC =         0.02953063
  Ewald energy   TEWEN  =        73.32412240
