 vasp.6.2.1 16May21 (build Dec 20 2021 17:02:34) complex                         
 executed on             LinuxGNU date 2026.02.02  14:00:13
 running on    1 total cores
 distrk:  each k-point on    1 cores,    1 groups
 distr:  one band on NCORE=   1 cores,    1 groups


--------------------------------------------------------------------------------------------------------


 INCAR:
   ENCUT = 400.000000
   SIGMA = 0.010000
   EDIFF = 1.00e-06
   ALGO = Normal
   PREC = Normal
   IBRION = -1
   ICHARG = 2
   ISMEAR = 0
   ISTART = 0
   ISYM = 0
   LORBIT = 11
   NELM = 100
   NELMIN = 4
   NPAR = 1
   NSW = 0
   LCHARG = .FALSE.
   LWAVE = .FALSE.
   LREAL = Auto
   ISPIN = 2
   MAGMOM = 1*0.8000 1*0.2000

 POTCAR:    PAW Be 02Feb1998                      
 POTCAR:    PAW H 06May1998                       
 POTCAR:    PAW Be 02Feb1998                      
   VRHFIN =Be: s2p0                                                                                 
   LEXCH  = CA                                                                                      
   EATOM  =    27.3295 eV,    2.0087 Ry                                                             
                                                                                                    
   TITEL  = PAW Be 02Feb1998                                                                        
   LULTRA =        F    use ultrasoft PP ?                                                          
   IUNSCR =        1    unscreen: 0-lin 1-nonlin 2-no                                               
   RPACOR =    1.580    partial core radius                                                         
   POMASS =    9.013; ZVAL   =    2.000    mass and valenz                                          
   RCORE  =    1.900    outmost cutoff radius                                                       
   RWIGS  =    1.880; RWIGS  =    0.995    wigner-seitz radius (au A)                               
   ENMAX  =  247.951; ENMIN  =  185.963 eV                                                          
   ICORE  =        2    local potential                                                             
   LCOR   =        T    correct aug charges                                                         
   LPAW   =        T    paw PP                                                                      
   EAUG   =  318.781                                                                                
   DEXC   =    0.000                                                                                
   RMAX   =    1.944    core radius for proj-oper                                                   
   RAUG   =    1.300    factor for augmentation sphere                                              
   RDEP   =    2.003    radius for radial grids                                                     
   RDEPT  =    1.788    core radius for aug-charge                                                  
                                                                                                    
   Atomic configuration                                                                             
    4 entries                                                                                       
     n  l   j            E        occ.                                                              
     1  0  0.50      -104.9107   2.0000                                                             
     2  0  0.50        -5.6075   1.9999                                                             
     2  1  0.50        -2.1069   0.0010                                                             
     3  2  1.50        -1.3606   0.0000                                                             
   Description                                                                                      
     l       E           TYP  RCUT    TYP  RCUT                                                     
     0     -5.6075172     23  1.900                                                                 
     0     27.2116520     23  1.900                                                                 
     1     -2.1069286     23  1.900                                                                 
     1     27.2116520     23  1.900                                                                 
     2     -1.3605826     15  1.500                                                                 
  local pseudopotential read in
  partial core-charges read in
  partial kinetic energy density read in
  atomic valenz-charges read in
  non local Contribution for L=           0  read in
    real space projection operators read in
  non local Contribution for L=           0  read in
    real space projection operators read in
  non local Contribution for L=           1  read in
    real space projection operators read in
  non local Contribution for L=           1  read in
    real space projection operators read in
    PAW grid and wavefunctions read in

   number of l-projection  operators is LMAX  =           4
   number of lm-projection operators is LMMAX =           8

 POTCAR:    PAW H 06May1998                       
   VRHFIN =H: ultrasoft test                                                                        
   LEXCH  = CA                                                                                      
   EATOM  =    12.1334 eV,    0.8918 Ry                                                             
                                                                                                    
   TITEL  = PAW H 06May1998                                                                         
   LULTRA =        F    use ultrasoft PP ?                                                          
   IUNSCR =        0    unscreen: 0-lin 1-nonlin 2-no                                               
   RPACOR =    0.000    partial core radius                                                         
   POMASS =    1.000; ZVAL   =    1.000    mass and valenz                                          
   RCORE  =    1.100    outmost cutoff radius                                                       
   RWIGS  =    0.700; RWIGS  =    0.370    wigner-seitz radius (au A)                               
   ENMAX  =  250.000; ENMIN  =  200.000 eV                                                          
   RCLOC  =    0.701    cutoff for local pot                                                        
   LCOR   =        T    correct aug charges                                                         
   LPAW   =        T    paw PP                                                                      
   EAUG   =  400.000                                                                                
   RMAX   =    1.123    core radius for proj-oper                                                   
   RAUG   =    1.200    factor for augmentation sphere                                              
   RDEP   =    1.112    radius for radial grids                                                     
   RDEPT  =    0.926    core radius for aug-charge                                                  
                                                                                                    
   Atomic configuration                                                                             
    2 entries                                                                                       
     n  l   j            E        occ.                                                              
     1  0  0.50        -6.3581   1.0000                                                             
     2  1  0.50        -3.4015   0.0000                                                             
   Description                                                                                      
     l       E           TYP  RCUT    TYP  RCUT                                                     
     0     -6.3581322     23  1.100                                                                 
     0      6.8029130     23  1.100                                                                 
     1     -4.0817478     23  1.100                                                                 
  local pseudopotential read in
  atomic valenz-charges read in
  non local Contribution for L=           0  read in
    real space projection operators read in
  non local Contribution for L=           0  read in
    real space projection operators read in
  non local Contribution for L=           1  read in
    real space projection operators read in
    PAW grid and wavefunctions read in

   number of l-projection  operators is LMAX  =           3
   number of lm-projection operators is LMMAX =           5

 -----------------------------------------------------------------------------
|                                                                             |
|               ----> ADVICE to this user running VASP <----                  |
|                                                                             |
|     You have a (more or less) 'small supercell' and for smaller cells       |
|     it is recommended to use the reciprocal-space projection scheme!        |
|     The real-space optimization is not efficient for small cells and it     |
|     is also less accurate ...                                               |
|     Therefore, set LREAL=.FALSE. in the INCAR file.                         |
|                                                                             |
 -----------------------------------------------------------------------------

 Optimization of the real space projectors (new method)

 maximal supplied QI-value         = 19.84
 optimisation between [QCUT,QGAM] = [ 10.12, 20.44] = [ 28.68,116.96] Ry 
 Optimized for a Real-space Cutoff    1.34 Angstroem

   l    n(q)    QCUT    max X(q) W(low)/X(q) W(high)/X(q)  e(spline) 
   0      8    10.119    14.765    0.14E-03    0.45E-04    0.81E-07
   0      8    10.119     6.153    0.13E-03    0.41E-04    0.66E-07
   1      8    10.119    20.834    0.28E-03    0.93E-03    0.11E-05
   1      8    10.119     8.540    0.28E-03    0.83E-03    0.10E-05
 Optimization of the real space projectors (new method)

 maximal supplied QI-value         = 34.20
 optimisation between [QCUT,QGAM] = [  9.92, 20.18] = [ 27.55,114.04] Ry 
 Optimized for a Real-space Cutoff    1.26 Angstroem

   l    n(q)    QCUT    max X(q) W(low)/X(q) W(high)/X(q)  e(spline) 
   0      8     9.919    20.415    0.48E-03    0.21E-03    0.30E-06
   0      8     9.919    12.552    0.46E-03    0.21E-03    0.28E-06
   1      7     9.919     4.672    0.17E-03    0.75E-03    0.30E-06
  PAW Be 02Feb1998                      :
 energy of atom  1       EATOM=  -27.3295
 kinetic energy error for atom=    0.0002 (will be added to EATOM!!)
  PAW H 06May1998                       :
 energy of atom  2       EATOM=  -12.1334
 kinetic energy error for atom=    0.0088 (will be added to EATOM!!)


 POSCAR: Be  H
  positions in cartesian coordinates
  No initial velocities read in
 exchange correlation table for  LEXCH =        2
   RHO(1)=    0.500       N(1)  =     2000
   RHO(2)=  100.500       N(2)  =     4000



--------------------------------------------------------------------------------------------------------


 ion  position               nearest neighbor table
   1  0.500  0.500  0.506-   2 0.13
   2  0.500  0.500  0.494-   1 0.13

 -----------------------------------------------------------------------------
|                                                                             |
|           W    W    AA    RRRRR   N    N  II  N    N   GGGG   !!!           |
|           W    W   A  A   R    R  NN   N  II  NN   N  G    G  !!!           |
|           W    W  A    A  R    R  N N  N  II  N N  N  G       !!!           |
|           W WW W  AAAAAA  RRRRR   N  N N  II  N  N N  G  GGG   !            |
|           WW  WW  A    A  R   R   N   NN  II  N   NN  G    G                |
|           W    W  A    A  R    R  N    N  II  N    N   GGGG   !!!           |
|                                                                             |
|     The distance between some ions is very small. Please check the          |
|     nearest-neighbor list in the OUTCAR file.                               |
|     I HOPE YOU KNOW WHAT YOU ARE DOING!                                     |
|                                                                             |
 -----------------------------------------------------------------------------


IMPORTANT INFORMATION: All symmetrisations will be switched off!
NOSYMM: (Re-)initialisation of all symmetry stuff for point group C_1.


----------------------------------------------------------------------------------------

                                     Primitive cell                                     

  volume of cell :    1134.8270

  direct lattice vectors                    reciprocal lattice vectors
    10.000000000  0.000000000  0.000000000     0.100000000  0.000000000  0.000000000
     0.000000000 10.000000000  0.000000000     0.000000000  0.100000000  0.000000000
     0.000000000  0.000000000 11.348270000     0.000000000  0.000000000  0.088119158

  length of vectors
    10.000000000 10.000000000 11.348270000     0.100000000  0.100000000  0.088119158

  position of ions in fractional coordinates (direct lattice)
     0.500000000  0.500000000  0.505859924
     0.500000000  0.500000000  0.494140076

  ion indices of the primitive-cell ions
   primitive index   ion index
                 1           1
                 2           2

----------------------------------------------------------------------------------------



 KPOINTS: KPOINTS created by Atomic Simulation Env

Automatic generation of k-mesh.
 Grid dimensions read from file:
 generate k-points for:    1    1    1

 Generating k-lattice:

  Cartesian coordinates                     Fractional coordinates (reciprocal lattice)
     0.100000000  0.000000000  0.000000000     1.000000000  0.000000000  0.000000000
     0.000000000  0.100000000  0.000000000     0.000000000  1.000000000  0.000000000
     0.000000000  0.000000000  0.088119158     0.000000000  0.000000000  1.000000000

  Length of vectors
     0.100000000  0.100000000  0.088119158

  Shift w.r.t. Gamma in fractional coordinates (k-lattice)
     0.000000000  0.000000000  0.000000000

 
 Subroutine IBZKPT returns following result:
 ===========================================
 
 Found      1 irreducible k-points:
 
 Following reciprocal coordinates:
            Coordinates               Weight
  0.000000  0.000000  0.000000      1.000000
 
 Following cartesian coordinates:
            Coordinates               Weight
  0.000000  0.000000  0.000000      1.000000
 


--------------------------------------------------------------------------------------------------------




 Dimension of arrays:
   k-points           NKPTS =      1   k-points in BZ     NKDIM =      1   number of bands    NBANDS=      6
   number of dos      NEDOS =    301   number of ions     NIONS =      2
   non local maximal  LDIM  =      4   non local SUM 2l+1 LMDIM =      8
   total plane-waves  NPLWV = 140000
   max r-space proj   IRMAX =   1294   max aug-charges    IRDMAX=   4388
   dimension x,y,z NGX =    50 NGY =   50 NGZ =   56
   dimension x,y,z NGXF=   100 NGYF=  100 NGZF=  112
   support grid    NGXF=   100 NGYF=  100 NGZF=  112
   ions per type =               1   1
   NGX,Y,Z   is equivalent  to a cutoff of   8.31,  8.31,  8.20 a.u.
   NGXF,Y,Z  is equivalent  to a cutoff of  16.62, 16.62, 16.41 a.u.

 SYSTEM =  unknown system                          
 POSCAR =  Be  H                                   

 Startparameter for this run:
   NWRITE =      2    write-flag & timer
   PREC   = normal    normal or accurate (medium, high low for compatibility)
   ISTART =      0    job   : 0-new  1-cont  2-samecut
   ICHARG =      2    charge: 1-file 2-atom 10-const
   ISPIN  =      2    spin polarized calculation?
   LNONCOLLINEAR =      F non collinear calculations
   LSORBIT =      F    spin-orbit coupling
   INIWAV =      1    electr: 0-lowe 1-rand  2-diag
   LASPH  =      F    aspherical Exc in radial PAW
 Electronic Relaxation 1
   ENCUT  =  400.0 eV  29.40 Ry    5.42 a.u.  16.31 16.31 18.51*2*pi/ulx,y,z
   ENINI  =  400.0     initial cutoff
   ENAUG  =  400.0 eV  augmentation charge cutoff
   NELM   =    100;   NELMIN=  4; NELMDL= -5     # of ELM steps 
   EDIFF  = 0.1E-05   stopping-criterion for ELM
   LREAL  =      T    real-space projection
   NLSPLINE    = F    spline interpolate recip. space projectors
   LCOMPAT=      F    compatible to vasp.4.4
   GGA_COMPAT  = T    GGA compatible to vasp.4.4-vasp.4.6
   LMAXPAW     = -100 max onsite density
   LMAXMIX     =    2 max onsite mixed and CHGCAR
   VOSKOWN=      0    Vosko Wilk Nusair interpolation
   ROPT   =   -0.00050  -0.00050
 Ionic relaxation
   EDIFFG = 0.1E-04   stopping-criterion for IOM
   NSW    =      0    number of steps for IOM
   NBLOCK =      1;   KBLOCK =      1    inner block; outer block 
   IBRION =     -1    ionic relax: 0-MD 1-quasi-New 2-CG
   NFREE  =      0    steps in history (QN), initial steepest desc. (CG)
   ISIF   =      2    stress and relaxation
   IWAVPR =     10    prediction:  0-non 1-charg 2-wave 3-comb
   ISYM   =      0    0-nonsym 1-usesym 2-fastsym
   LCORR  =      T    Harris-Foulkes like correction to forces

   POTIM  = 0.5000    time-step for ionic-motion
   TEIN   =    0.0    initial temperature
   TEBEG  =    0.0;   TEEND  =   0.0 temperature during run
   SMASS  =  -3.00    Nose mass-parameter (am)
   estimated Nose-frequenzy (Omega)   =  0.10E-29 period in steps = 0.13E+47 mass=  -0.229E-26a.u.
   SCALEE = 1.0000    scale energy and forces
   NPACO  =    256;   APACO  = 16.0  distance and # of slots for P.C.
   PSTRESS=    0.0 pullay stress

  Mass of Ions in am
   POMASS =   9.01  1.00
  Ionic Valenz
   ZVAL   =   2.00  1.00
  Atomic Wigner-Seitz radii
   RWIGS  =  -1.00 -1.00
  virtual crystal weights 
   VCA    =   1.00  1.00
   NELECT =       3.0000    total number of electrons
   NUPDOWN=      -1.0000    fix difference up-down

 DOS related values:
   EMIN   =  10.00;   EMAX   =-10.00  energy-range for DOS
   EFERMI =   0.00
   ISMEAR =     0;   SIGMA  =   0.01  broadening in eV -4-tet -1-fermi 0-gaus

 Electronic relaxation 2 (details)
   IALGO  =     38    algorithm
   LDIAG  =      T    sub-space diagonalisation (order eigenvalues)
   LSUBROT=      F    optimize rotation matrix (better conditioning)
   TURBO    =      0    0=normal 1=particle mesh
   IRESTART =      0    0=no restart 2=restart with 2 vectors
   NREBOOT  =      0    no. of reboots
   NMIN     =      0    reboot dimension
   EREF     =   0.00    reference energy to select bands
   IMIX   =      4    mixing-type and parameters
     AMIX     =   0.40;   BMIX     =  1.00
     AMIX_MAG =   1.60;   BMIX_MAG =  1.00
     AMIN     =   0.10
     WC   =   100.;   INIMIX=   1;  MIXPRE=   1;  MAXMIX= -45

 Intra band minimization:
   WEIMIN = 0.0000     energy-eigenvalue tresh-hold
   EBREAK =  0.42E-07  absolut break condition
   DEPER  =   0.30     relativ break condition  

   TIME   =   0.40     timestep for ELM

  volume/ion in A,a.u.               =     567.41      3829.10
  Fermi-wavevector in a.u.,A,eV,Ry     =   0.226363  0.427764  0.697165  0.051240
  Thomas-Fermi vector in A             =   1.014511

 Write flags
   LWAVE        =      F    write WAVECAR
   LDOWNSAMPLE  =      F    k-point downsampling of WAVECAR
   LCHARG       =      F    write CHGCAR
   LVTOT        =      F    write LOCPOT, total local potential
   LVHAR        =      F    write LOCPOT, Hartree potential only
   LELF         =      F    write electronic localiz. function (ELF)
   LORBIT       =     11    0 simple, 1 ext, 2 COOP (PROOUT), +10 PAW based schemes


 Dipole corrections
   LMONO  =      F    monopole corrections only (constant potential shift)
   LDIPOL =      F    correct potential (dipole corrections)
   IDIPOL =      0    1-x, 2-y, 3-z, 4-all directions 
   EPSILON=  1.0000000 bulk dielectric constant

 Exchange correlation treatment:
   GGA     =    --    GGA type
   LEXCH   =     2    internal setting for exchange type
   VOSKOWN=      0    Vosko Wilk Nusair interpolation
   LHFCALC =     F    Hartree Fock is set to
   LHFONE  =     F    Hartree Fock one center treatment
   AEXX    =    0.0000 exact exchange contribution

 Linear response parameters
   LEPSILON=     F    determine dielectric tensor
   LRPA    =     F    only Hartree local field effects (RPA)
   LNABLA  =     F    use nabla operator in PAW spheres
   LVEL    =     F    velocity operator in full k-point grid
   LINTERFAST=   F  fast interpolation
   KINTER  =     0    interpolate to denser k-point grid
   CSHIFT  =0.1000    complex shift for real part using Kramers Kronig
   OMEGAMAX=  -1.0    maximum frequency
   DEG_THRESHOLD= 0.2000000E-02 threshold for treating states as degnerate
   RTIME   =   -0.100 relaxation time in fs
  (WPLASMAI=    0.000 imaginary part of plasma frequency in eV, 0.658/RTIME)
   DFIELD  = 0.0000000 0.0000000 0.0000000 field for delta impulse in time

 Orbital magnetization related:
   ORBITALMAG=     F  switch on orbital magnetization
   LCHIMAG   =     F  perturbation theory with respect to B field
   DQ        =  0.001000  dq finite difference perturbation B field
   LLRAUG    =     F  two centre corrections for induced B field



--------------------------------------------------------------------------------------------------------


 Static calculation
 charge density and potential will be updated during run
 spin polarized calculation
 Variant of blocked Davidson
 Davidson routine will perform the subspace rotation
 perform sub-space diagonalisation
    after iterative eigenvector-optimisation
 modified Broyden-mixing scheme, WC =      100.0
 initial mixing is a Kerker type mixing with AMIX =  0.4000 and BMIX =      1.0000
 Hartree-type preconditioning will be used
 using additional bands            4
 real space projection scheme for non local part
 use partial core corrections
 calculate Harris-corrections to forces   (improved forces if not selfconsistent)
 use of overlap-Matrix (Vanderbilt PP)
 Gauss-broadening in eV      SIGMA  =   0.01


--------------------------------------------------------------------------------------------------------


  energy-cutoff  :      400.00
  volume of cell :     1134.83
      direct lattice vectors                 reciprocal lattice vectors
    10.000000000  0.000000000  0.000000000     0.100000000  0.000000000  0.000000000
     0.000000000 10.000000000  0.000000000     0.000000000  0.100000000  0.000000000
     0.000000000  0.000000000 11.348270000     0.000000000  0.000000000  0.088119158

  length of vectors
    10.000000000 10.000000000 11.348270000     0.100000000  0.100000000  0.088119158



 k-points in units of 2pi/SCALE and weight: KPOINTS created by Atomic Simulation Env
   0.00000000  0.00000000  0.00000000       1.000

 k-points in reciprocal lattice and weights: KPOINTS created by Atomic Simulation Env
   0.00000000  0.00000000  0.00000000       1.000

 position of ions in fractional coordinates (direct lattice) 
   0.50000000  0.50000000  0.50585992
   0.50000000  0.50000000  0.49414008

 position of ions in cartesian coordinates  (Angst):
   5.00000000  5.00000000  5.74063500
   5.00000000  5.00000000  5.60763500



--------------------------------------------------------------------------------------------------------


 k-point   1 :   0.0000 0.0000 0.0000  plane waves:   20689

 maximum and minimum number of plane-waves per node :     20689    20689

 maximum number of plane-waves:     20689
 maximum index in each direction: 
   IXMAX=   16   IYMAX=   16   IZMAX=   18
   IXMIN=  -16   IYMIN=  -16   IZMIN=  -18


 serial   3D FFT for wavefunctions
 parallel 3D FFT for charge:
    minimum data exchange during FFTs selected (reduces bandwidth)


 total amount of memory used by VASP MPI-rank0   175117. kBytes
=======================================================================

   base      :      30000. kBytes
   nonlr-proj:        171. kBytes
   fftplans  :      38800. kBytes
   grid      :     102160. kBytes
   one-center:         12. kBytes
   wavefun   :       3974. kBytes

     INWAV:  cpu time    0.0001: real time    0.1455
 Broyden mixing: mesh for mixing (old mesh)
   NGX = 33   NGY = 33   NGZ = 37
  (NGX  =100   NGY  =100   NGZ  =112)
  gives a total of  40293 points

 initial charge density was supplied:
 charge density of overlapping atoms calculated
 number of electron       3.0000000 magnetization       1.0000000
 keeping initial charge density in first step


--------------------------------------------------------------------------------------------------------


 Maximum index for non-local projection operator         1209
 Maximum index for augmentation-charges         4068 (set IRDMAX)


--------------------------------------------------------------------------------------------------------


 First call to EWALD:  gamma=   0.170
 Maximum number of real-space cells 3x 3x 3
 Maximum number of reciprocal cells 3x 3x 3

    FEWALD:  cpu time    0.0008: real time    0.0008
                                                                                                                                                                                                                                                                                                                                                                                                                                                                                                                                                                                                                                                                                                                                                                                                                                                                                                                                                                                                                                                                                                                                                                                                                                                                                                                                                                                                                                                                                                                                                                                                                                                                                                                                                                                                                                                                                                                                                                                                                                                                                                                                                                                                                                                                                                                                                                                                                                                                                                                                                                                                                                                                                                                                                                                                                                                                                                                                                                                                                                                                                                                                                                                                                                                                                                                                                                                                                                                                                                                                                                                                                                                                                                                                                                                                                                                                                                                                                                                                                                                                                                                                                                                                                                                                                                                                                                                                                                                                                                                                                                                                                                                                                                                                                                                                                                                                                                                                                                                                                                                                                                                                                                                                                                                                                                                                                                                                                                                                                                                                                                                                                                                                                                                                                                                                                                                                                                                                                                                                                                                                                                                                                                                                                                                                                                                                                                                                                                                                                                                                                                                                                                                                                                                                                                                                                                                                                                                                                                                                                                                                                                                                                                                                                                                                                                                                                                                                                                                                                                                                                                                                                                                                                                                                                                                                                                                                                                                                                                                                                                                                                                                                                                                                                                                                                                                                                                                                                                                                                                                                                                                                                                                                                                                                                                                                                                                                                                                                                                                                                                                                                                                                                                                                                                                                                                                                                                                                                                                                                                                                                                                                                                                                                                                                                                                                                                                                                                                                                                                                                                                                                                                                                                                                                                                                                                                                                                                                                                                                                                                                                                                                                                                                                                                                                                                                                                                                                                                                                                                                                                                                                                                                                                                                                                                                                                                                                                                                                                                                                                                                                                                                                                                                                                                                                                                                                                                                                                                                                                                                                                                                                                                                                                                                                                                                                                                                                                                                                                                                                                                                                                                                                                                                                                                                                                                                                                                                                                                                                                                                                                                                                                                                                                                                                                                                                                                                                                                                                                                                                                                                                                                                                                                                                                                                                                                                                                                                                                                                                                                                                                                                                                                                                                                                                                                                                                                                                                                                                                                                                                                                                                                                                                                                                                                                                                                                                                                                                                                                                                                                                                                                                                                                                                                                                                                                                                                                                                                                                                                                                                                                                                                                                                                                                                                                                                                                                                                                                                                                                                                                                                                                                                                                                                                                                                                                                                                                                                                                                                                                                                                                                                                                                                                                                                                                                                                                                                                                                                                                                                                                                                                                                                                                                                                                                                                                                                                                                                                                                                                                                                                                                                                                                                                                                                                                                                                                                                                                                                                                                                                                                                                                                                                                                                                                                                                                                                                                                                                                                                                                                                                                                                                                                                                                                                                                                                                                                                                                                                                                                                                                                                                                                                                                                                                                                                                                                                                                                                                                                                                                                                                                                                                                                                                                                                                                                                                                                                                                                                                                                                                                                                                                                                                                                                                                                                                                                                                                                                                                                                                                                                                                                                                                                                                                                                                                                                                                                                                                                                                                                                                                                                                                                                                                                                                                                                                                                                                                                                                                                                                                                                                                                                                                                                                                                                                                                                                                                                                                                                                                                                                                                                                                                                                                                                                                                                                                                                                                                                                                                                                                                                                                                                                                                                                                                                                                                                                                                                                                                                                                                                                                                                                                                                                                                                                                                                                                                                                                                                                                                                                                                                                                                                                                                                                                                                                                                                                                                                                                                                                                                                                                                                                                                                                                                                                                                                                                                                                                                                                                                                                                                                                                                                                                                                                                                                                                                                                                                                                                                                                                                                                                                                                                                                                                                                                                                                                                                                                                                                                                                                                                                                                                                                                                                                                                                                                                                                                                                                                                                                                                                                                                                                                                                                                                                                                                                                                                                                                                                                                                                                                                                                                                                                                                                                                                                                                                                                                                                                                                                                                                                                                                                                                                                                                                                                                                                                                                                                                                                                                                                                                                                                                                                                                                                                                                                                                                                                                                                                                                                                                                                                                                                                                                                                                                                                                                                                                                                                                                                                                                                                                                                                                                                                                                                                                                                                                                                                                                                                                                                                                                                                                                                                                                                                                                                                                                                                                                                                                                                                                                                                                                                                                                                                                                                                                                                                                                                                                                                                                                                                                                                                                                                                                                                                                                                                                                                                                                                                                                                                                                                                                                                                                                                                                                                                                                                                                                                                                                                                                                                                                                                                                                                                                                                                                                                                                                                                                                                                                                                                                                                                                                                                                                                                                                                                                                                                                                                                                                                                                                                                                                                                                                                                                                                                                                                                                                                                                                                                                                                                                                                                                                                                                                                                                                                                                                                                                                                                                                                                                                                                                                                                                                                                                                                                                                                                                                                                                                                                                                                                                                                                                                                                                                                                                                                                                                                                                                                                                                                                                                                                                                                                                                                                                                                                                                                                                                                                                                                                                                                                                                                                                                                                                                                                                                                                                                                                                                                                                                                                                                                                                                                                                                                                                                                                                                                                                                                                                                                                                                                                                                                                                                                                                                                                                                                                                                                                                                                                                                                                                                                                                                                                                                                                                                                                                                                                                                                                                                                                                                                                                                                                                                                                                                                                                                                                                                                                                                                                                                                                                                                                                                                                                                                                                                                                                                                                                                                                                                                                                                                                                                                                                                                                                                                                                                                                                                                                                                                                                                                                                                                                                                                                                                                                                                                                                                                                                                                                                                                                                                                                                                                                                                                                                                                                                                                                                                                                                                                                                                                                                                                                                                                                                                                                                                                                                                                                                                                                                                                                                                                                                                                                                                                                                                                                                                                                                                                                                                                                                                                                                                                                                                                                                                                                                                                                                                                                                                                                                                                                                                                                                                                                                                                                                                                                                                                                                                                                                                                                                                                                                                                                                                                                                                                                                                                                                                                                                                                                                                                                                                                                                                                                                                                                                                                                                                                                                                                                                                                                                                                                                                                                                                                                                                                                                                                                                                                                                                                                                                                                                                                                                                                                                                                                                                                                                                                                                                                                                                                                                                                                                                                                                                                                                                                                                                                                                                                                                                                                                                                                                                                                                                                                                                                                                                                                                                                                                                                                                                                                                                                                                                                                                                                                                                                                                                                                                                                                                                                                                                                                                                                                                                                                                                                                                                                                                                                                                                                                                                                                                                                                                                                                                                                                                                                                                                                                                                                                                                                                                                                                                                                                                                                                                                                                                                                                                                                                                                                                                                                                                                                                                                                                                                                                                                                                                                                                                                                                                                                                                                                                                                                                                                                                                                                                                                                                                                                                                                                                                                                                                                                                                                                                                                                                                                                                                                                                                                                                                                                                                                                                                                                                                                                                                                                                                                                                                                                                                                                                                                                                                                                                                                                                                                                                                                                                                                                                                                                                                                                                                                                                                                                                                                                                                                                                                                                                                                                                                                                                                                                                                                                                                                                                                                                                                                                                                                                                                                                                                                                                                                                                                                                                                                                                                                                                                                                                                                                                                                                                                                                                                                                                                                                                                                                                                                                                                                                                                                                                                                                                                                                                                                                                                                                                                                                                                                                                                                                                                                                                                                                                                                                                                                                                                                                                                                                                                                                                                                                                                                                                                                                                                                                                                                                                                                                                                                                                                                                                                                                                                                                                                                                                                                                                                                                                                                                                                                                                                                                                                                                                                                                                                                                                                                                                                                                                                                                                                                                                                                                                                                                                                                                                                                                                                                                                                                                                                                                                                                                                                                                                                                                                                                                                                                                                                                                                                                                                                                                                                                                                                                                                                                                                                                                                                                                                                                                                                                                                                                                                                                                                                                                                                                                                                                                                                                                                                                                                                                                                                                                                                                                                                                                                                                                                                                                                                                                                                                                                                                                                                                                                                                                                                                                                                                                                                                                                                                                                                                                                                                                                                                                                                                                                                                                                                                                                                                                                                                                                                                                                                                                                                                                                                                                                                                                                                                                                                                                                                                                                                                                                                                                                                    
[...]
 number of electron       3.0000027 magnetization       1.0000000
 augmentation part       -0.1310904 magnetization       0.0225367

 Broyden mixing:
  rms(total) = 0.36712E+00    rms(broyden)= 0.36711E+00
  rms(prec ) = 0.45036E+00
  weight for this iteration     100.00

 eigenvalues of (default mixing * dielectric matrix)
  average eigenvalue GAMMA=   0.9557
  0.9557

 Free energy of the ion-electron system (eV)
  ---------------------------------------------------
  alpha Z        PSCENC =         0.03055249
  Ewald energy   TEWEN  =       107.14563827
  -Hartree energ DENC   =       -35.36781789
  -exchange      EXHF   =         0.00000000
  -V(xc)+E(xc)   XCENC  =         5.58749183
  PAW double counting   =        29.30449100      -28.89167221
  entropy T*S    EENTRO =        -0.00000000
  eigenvalues    EBANDS =       -25.55607798
  atomic energy  EATOM  =        39.45394150
  Solvation  Ediel_sol  =         0.00000000
  ---------------------------------------------------
  free energy    TOTEN  =        91.70654701 eV

  energy without entropy =       91.70654701  energy(sigma->0) =       91.70654701


--------------------------------------------------------------------------------------------------------




--------------------------------------- Iteration      1(   7)  ---------------------------------------


    POTLOK:  cpu time    0.3712: real time    0.3726
    SETDIJ:  cpu time    0.0159: real time    0.0160
     EDDAV:  cpu time    0.3374: real time    0.3385
       DOS:  cpu time    0.0001: real time    0.0001
    CHARGE:  cpu time    0.0725: real time    0.0728
    MIXING:  cpu time    0.0388: real time    0.0390
    --------------------------------------------
      LOOP:  cpu time    0.8359: real time    0.8390

 eigenvalue-minimisations  :    24
 total energy-change (2. order) : 0.1128986E+00  (-0.1412722E+00)
 number of electron       3.0000024 magnetization       1.0000001
 augmentation part       -0.1337321 magnetization       0.0236736

 Broyden mixing:
  rms(total) = 0.13186E+00    rms(broyden)= 0.13174E+00
  rms(prec ) = 0.14883E+00
  weight for this iteration     100.00

 eigenvalues of (default mixing * dielectric matrix)
  average eigenvalue GAMMA=   1.1492
  1.5803  0.7182

 Free energy of the ion-electron system (eV)
  ---------------------------------------------------
  alpha Z        PSCENC =         0.03055249
  Ewald energy   TEWEN  =       107.14563827
  -Hartree energ DENC   =       -38.62312940
  -exchange      EXHF   =         0.00000000
  -V(xc)+E(xc)   XCENC  =         5.64821168
  PAW double counting   =        43.68383944      -43.46634115
  entropy T*S    EENTRO =        -0.00000000
  eigenvalues    EBANDS =       -22.05326725
  atomic energy  EATOM  =        39.45394150
  Solvation  Ediel_sol  =         0.00000000
  ---------------------------------------------------
  free energy    TOTEN  =        91.81944558 eV

  energy without entropy =       91.81944558  energy(sigma->0) =       91.81944558


--------------------------------------------------------------------------------------------------------




--------------------------------------- Iteration      1(   8)  ---------------------------------------


    POTLOK:  cpu time    0.3703: real time    0.3718
    SETDIJ:  cpu time    0.0168: real time    0.0168
     EDDAV:  cpu time    0.3488: real time    0.3503
       DOS:  cpu time    0.0001: real time    0.0001
    CHARGE:  cpu time    0.0786: real time    0.0789
    MIXING:  cpu time    0.0417: real time    0.0420
    --------------------------------------------
      LOOP:  cpu time    0.8563: real time    0.8600

 eigenvalue-minimisations  :    24
 total energy-change (2. order) :-0.5423567E-01  (-0.6905867E-02)
 number of electron       3.0000024 magnetization       1.0000001
 augmentation part       -0.1350544 magnetization       0.0268854

 Broyden mixing:
  rms(total) = 0.48177E-01    rms(broyden)= 0.48131E-01
  rms(prec ) = 0.63710E-01
  weight for this iteration     100.00

 eigenvalues of (default mixing * dielectric matrix)
  average eigenvalue GAMMA=   1.0768
  1.6052  0.9561  0.6690

 Free energy of the ion-electron system (eV)
  ---------------------------------------------------
  alpha Z        PSCENC =         0.03055249
  Ewald energy   TEWEN  =       107.14563827
  -Hartree energ DENC   =       -39.32623299
  -exchange      EXHF   =         0.00000000
  -V(xc)+E(xc)   XCENC  =         5.74819174
  PAW double counting   =        46.33635927      -46.15195900
  entropy T*S    EENTRO =        -0.00000000
  eigenvalues    EBANDS =       -21.47128137
  atomic energy  EATOM  =        39.45394150
  Solvation  Ediel_sol  =         0.00000000
  ---------------------------------------------------
  free energy    TOTEN  =        91.76520991 eV

  energy without entropy =       91.76520991  energy(sigma->0) =       91.76520991


--------------------------------------------------------------------------------------------------------




--------------------------------------- Iteration      1(   9)  ---------------------------------------


    POTLOK:  cpu time    0.3894: real time    0.3909
    SETDIJ:  cpu time    0.0161: real time    0.0161
     EDDAV:  cpu time    0.3498: real time    0.3511
       DOS:  cpu time    0.0001: real time    0.0001
    CHARGE:  cpu time    0.0720: real time    0.0723
    MIXING:  cpu time    0.0415: real time    0.0416
    --------------------------------------------
      LOOP:  cpu time    0.8689: real time    0.8722

 eigenvalue-minimisations  :    24
 total energy-change (2. order) :-0.1507598E-01  (-0.3677891E-03)
 number of electron       3.0000024 magnetization       1.0000001
 augmentation part       -0.1360669 magnetization       0.0261946

 Broyden mixing:
  rms(total) = 0.27119E-01    rms(broyden)= 0.27115E-01
  rms(prec ) = 0.38252E-01
  weight for this iteration     100.00

 eigenvalues of (default mixing * dielectric matrix)
  average eigenvalue GAMMA=   1.2205
  1.7416  1.7416  0.7618  0.6369

 Free energy of the ion-electron system (eV)
  ---------------------------------------------------
  alpha Z        PSCENC =         0.03055249
  Ewald energy   TEWEN  =       107.14563827
  -Hartree energ DENC   =       -39.44824180
  -exchange      EXHF   =         0.00000000
  -V(xc)+E(xc)   XCENC  =         5.76124771
  PAW double counting   =        46.60530205      -46.42863793
  entropy T*S    EENTRO =        -0.00000000
  eigenvalues    EBANDS =       -21.36966836
  atomic energy  EATOM  =        39.45394150
  Solvation  Ediel_sol  =         0.00000000
  ---------------------------------------------------
  free energy    TOTEN  =        91.75013393 eV

  energy without entropy =       91.75013393  energy(sigma->0) =       91.75013393


--------------------------------------------------------------------------------------------------------




--------------------------------------- Iteration      1(  10)  ---------------------------------------


    POTLOK:  cpu time    0.3744: real time    0.3755
    SETDIJ:  cpu time    0.0158: real time    0.0159
     EDDAV:  cpu time    0.3857: real time    0.3876
       DOS:  cpu time    0.0001: real time    0.0001
    CHARGE:  cpu time    0.0866: real time    0.0871
    MIXING:  cpu time    0.0506: real time    0.0509
    --------------------------------------------
      LOOP:  cpu time    0.9131: real time    0.9172

 eigenvalue-minimisations  :    24
 total energy-change (2. order) :-0.1474283E-01  (-0.4567295E-03)
 number of electron       3.0000024 magnetization       1.0000002
 augmentation part       -0.1369652 magnetization       0.0266447

 Broyden mixing:
  rms(total) = 0.73198E-02    rms(broyden)= 0.73184E-02
  rms(prec ) = 0.16460E-01
  weight for this iteration     100.00

 eigenvalues of (default mixing * dielectric matrix)
  average eigenvalue GAMMA=   1.2822
  2.3881  1.7565  0.8886  0.7467  0.6313

 Free energy of the ion-electron system (eV)
  ---------------------------------------------------
  alpha Z        PSCENC =         0.03055249
  Ewald energy   TEWEN  =       107.14563827
  -Hartree energ DENC   =       -39.62791245
  -exchange      EXHF   =         0.00000000
  -V(xc)+E(xc)   XCENC  =         5.77180799
  PAW double counting   =        46.70734284      -46.53122570
  entropy T*S    EENTRO =        -0.00000000
  eigenvalues    EBANDS =       -21.21475383
  atomic energy  EATOM  =        39.45394150
  Solvation  Ediel_sol  =         0.00000000
  ---------------------------------------------------
  free energy    TOTEN  =        91.73539110 eV

  energy without entropy =       91.73539110  energy(sigma->0) =       91.73539110


--------------------------------------------------------------------------------------------------------




--------------------------------------- Iteration      1(  11)  ---------------------------------------


    POTLOK:  cpu time    0.4281: real time    0.4308
    SETDIJ:  cpu time    0.0195: real time    0.0196
     EDDAV:  cpu time    0.5681: real time    0.5715
       DOS:  cpu time    0.0001: real time    0.0001
    CHARGE:  cpu time    0.0858: real time    0.0863
    MIXING:  cpu time    0.0525: real time    0.0528
    --------------------------------------------
      LOOP:  cpu time    1.1540: real time    1.1611

 eigenvalue-minimisations  :    36
 total energy-change (2. order) :-0.2860543E-02  (-0.1068347E-03)
 number of electron       3.0000024 magnetization       1.0000002
 augmentation part       -0.1372617 magnetization       0.0269573

 Broyden mixing:
  rms(total) = 0.50347E-02    rms(broyden)= 0.50338E-02
  rms(prec ) = 0.11979E-01
  weight for this iteration     100.00

 eigenvalues of (default mixing * dielectric matrix)
  average eigenvalue GAMMA=   1.2678
  2.4414  1.8071  1.0068  1.0068  0.7137  0.6311

 Free energy of the ion-electron system (eV)
  ---------------------------------------------------
  alpha Z        PSCENC =         0.03055249
  Ewald energy   TEWEN  =       107.14563827
  -Hartree energ DENC   =       -39.74643578
  -exchange      EXHF   =         0.00000000
  -V(xc)+E(xc)   XCENC  =         5.78465332
  PAW double counting   =        46.77778171      -46.60411239
  entropy T*S    EENTRO =        -0.00000000
  eigenvalues    EBANDS =       -21.10948856
  atomic energy  EATOM  =        39.45394150
  Solvation  Ediel_sol  =         0.00000000
  ---------------------------------------------------
  free energy    TOTEN  =        91.73253056 eV

  energy without entropy =       91.73253056  energy(sigma->0) =       91.73253056


--------------------------------------------------------------------------------------------------------




--------------------------------------- Iteration      1(  12)  ---------------------------------------


    POTLOK:  cpu time    0.4215: real time    0.4239
    SETDIJ:  cpu time    0.0189: real time    0.0190
     EDDAV:  cpu time    0.3882: real time    0.3901
       DOS:  cpu time    0.0001: real time    0.0001
    CHARGE:  cpu time    0.0878: real time    0.0883
    MIXING:  cpu time    0.0555: real time    0.0558
    --------------------------------------------
      LOOP:  cpu time    0.9720: real time    0.9772

 eigenvalue-minimisations  :    24
 total energy-change (2. order) :-0.4362196E-02  (-0.1049608E-03)
 number of electron       3.0000024 magnetization       1.0000002
 augmentation part       -0.1372389 magnetization       0.0267991

 Broyden mixing:
  rms(total) = 0.28289E-02    rms(broyden)= 0.28286E-02
  rms(prec ) = 0.70450E-02
  weight for this iteration     100.00

 eigenvalues of (default mixing * dielectric matrix)
  average eigenvalue GAMMA=   1.3529
  2.4100  2.4100  1.5683  0.9024  0.8260  0.7284  0.6251

 Free energy of the ion-electron system (eV)
  ---------------------------------------------------
  alpha Z        PSCENC =         0.03055249
  Ewald energy   TEWEN  =       107.14563827
  -Hartree energ DENC   =       -39.84979779
  -exchange      EXHF   =         0.00000000
  -V(xc)+E(xc)   XCENC  =         5.79079078
  PAW double counting   =        46.54540696      -46.36683801
  entropy T*S    EENTRO =        -0.00000000
  eigenvalues    EBANDS =       -21.02152584
  atomic energy  EATOM  =        39.45394150
  Solvation  Ediel_sol  =         0.00000000
  ---------------------------------------------------
  free energy    TOTEN  =        91.72816836 eV

  energy without entropy =       91.72816836  energy(sigma->0) =       91.72816836


--------------------------------------------------------------------------------------------------------
.65859   -27.65859   -42.50814    -0.00000     0.00000     0.00000
  n-local     8.58153     8.58153    11.67426    -0.00000    -0.00000     0.00000
  augment    -2.68515    -2.68515    -1.44194     0.00000    -0.00000     0.00000
  Kinetic    20.54501    20.54501    37.53780    -0.00000    -0.00000     0.00000
  Fock        0.00000     0.00000     0.00000     0.00000     0.00000     0.00000
  -------------------------------------------------------------------------------------
  Total      -0.66211    -0.66211   128.91995     0.00000     0.00000     0.00000
  in kB      -0.93479    -0.93479   182.01242     0.00000     0.00000     0.00000
  external pressure =       60.05 kB  Pullay stress =        0.00 kB


 VOLUME and BASIS-vectors are now :
 -----------------------------------------------------------------------------
  energy-cutoff  :      250.00
  volume of cell :     1134.83
      direct lattice vectors                 reciprocal lattice vectors
    10.000000000  0.000000000  0.000000000     0.100000000  0.000000000  0.000000000
     0.000000000 10.000000000  0.000000000     0.000000000  0.100000000  0.000000000
     0.000000000  0.000000000 11.348270000     0.000000000  0.000000000  0.088119158

  length of vectors
    10.000000000 10.000000000 11.348270000     0.100000000  0.100000000  0.088119158


 FORCES acting on ions
    electron-ion (+dipol)            ewald-force                    non-local-force                 convergence-correction
 -----------------------------------------------------------------------------------------------
   0.225E-13 0.396E-13 -.224E+02   -.455E-17 0.194E-17 0.540E+03   0.808E-27 -.625E-27 0.436E+02   -.436E-16 -.213E-15 0.383E-03
   0.172E-13 0.231E-13 -.122E+02   0.184E-17 0.196E-17 -.540E+03   -.505E-28 0.303E-27 -.896E+01   -.127E-15 -.195E-15 0.583E-03
 -----------------------------------------------------------------------------------------------
   0.398E-13 0.627E-13 -.346E+02   -.271E-17 0.390E-17 0.000E+00   0.757E-27 -.323E-27 0.346E+02   -.171E-15 -.408E-15 0.965E-03


 POSITION                                       TOTAL-FORCE (eV/Angst)
 -----------------------------------------------------------------------------------
      5.00000      5.00000      5.78963         0.000000      0.000000    560.852615
      5.00000      5.00000      5.55864        -0.000000     -0.000000   -560.852615
 -----------------------------------------------------------------------------------
    total drift:                                0.000000      0.000000     -0.004314


--------------------------------------------------------------------------------------------------------



  FREE ENERGIE OF THE ION-ELECTRON SYSTEM (eV)
  ---------------------------------------------------
  free  energy   TOTEN  =        92.25691329 eV

  energy  without entropy=       92.31329592  energy(sigma->0) =       92.27570750



--------------------------------------------------------------------------------------------------------


    POTLOK:  cpu time    0.1412: real time    0.1417


--------------------------------------------------------------------------------------------------------


 writing wavefunctions
     LOOP+:  cpu time    5.2916: real time    9.4656
    4ORBIT:  cpu time    0.0000: real time    0.0000

 total amount of memory used by VASP MPI-rank0    91815. kBytes
=======================================================================

   base      :      30000. kBytes
   nonl-proj :       1632. kBytes
   fftplans  :      21344. kBytes
   grid      :      38016. kBytes
   one-center:          6. kBytes
   wavefun   :        817. kBytes

  
  
 General timing and accounting informations for this job:
 ========================================================
  
                  Total CPU time used (sec):        7.260
                            User time (sec):        6.947
                          System time (sec):        0.313
                         Elapsed time (sec):       16.654
  
                   Maximum memory used (kb):      294800.
                   Average memory used (kb):          N/A
  
                          Minor page faults:        63581
                          Major page faults:            0
                 Voluntary context switches:         1898
ropy T*S    EENTRO =        -0.00104346
  eigenvalues    EBANDS =       -14.78712996
  atomic energy  EATOM  =        39.45394150
  Solvation  Ediel_sol  =         0.00000000
  ---------------------------------------------------
  free energy    TOTEN  =       197.45360088 eV

  energy without entropy =      197.45464433  energy(sigma->0) =      197.45412261


--------------------------------------------------------------------------------------------------------




--------------------------------------- Iteration      1(   2)  ---------------------------------------


     EDDAV:  cpu time    0.7416: real time    0.7462
       DOS:  cpu time    0.0001: real time    0.0001
    --------------------------------------------
      LOOP:  cpu time    0.7417: real time    0.7463

 eigenvalue-minimisations  :    48
 total energy-change (2. order) :-0.1214112E+02  (-0.1211731E+02)
 number of electron       3.0000000 magnetization       1.0000000
 augmentation part        3.0000000 magnetization       1.0000000

 Free energy of the ion-electron system (eV)
  ---------------------------------------------------
  alpha Z        PSCENC =         0.03055249
  Ewald energy   TEWEN  =       199.00911972
  -Hartree energ DENC   =       -31.55716714
  -exchange      EXHF   =         0.00000000
  -V(xc)+E(xc)   XCENC  =         4.58769683
  PAW double counting   =        17.71566074      -16.99802984
  entropy T*S    EENTRO =        -0.00000000
  eigenvalues    EBANDS =       -26.92928882
  atomic energy  EATOM  =        39.45394150
  Solvation  Ediel_sol  =         0.00000000
  ---------------------------------------------------
  free energy    TOTEN  =       185.31248547 eV

  energy without entropy =      185.31248547  energy(sigma->0) =      185.31248547


--------------------------------------------------------------------------------------------------------




--------------------------------------- Iteration      1(   3)  ---------------------------------------


     EDDAV:  cpu time    0.5637: real time    0.5668
       DOS:  cpu time    0.0001: real time    0.0001
    --------------------------------------------
      LOOP:  cpu time    0.5638: real time    0.5670

 eigenvalue-minimisations  :    36
 total energy-change (2. order) :-0.8613905E+00  (-0.8613905E+00)
 number of electron       3.0000000 magnetization       1.0000000
 augmentation part        3.0000000 magnetization       1.0000000

 Free energy of the ion-electron system (eV)
  ---------------------------------------------------
  alpha Z        PSCENC =         0.03055249
  Ewald energy   TEWEN  =       199.00911972
  -Hartree energ DENC   =       -31.55716714
  -exchange      EXHF   =         0.00000000
  -V(xc)+E(xc)   XCENC  =         4.58769683
  PAW double counting   =        17.71566074      -16.99802984
  entropy T*S    EENTRO =        -0.00000000
  eigenvalues    EBANDS =       -27.79067930
  atomic energy  EATOM  =        39.45394150
  Solvation  Ediel_sol  =         0.00000000
  ---------------------------------------------------
