PROCAR lm decomposed
# of k-points:    1         # of bands:    6         # of ions:    2

 k-point     1 :    0.00000000 0.00000000 0.00000000     weight = 1.00000000

band     1 # energy   -7.48177460 # occ.  1.00000000

ion      s     py     pz     px    dxy    dyz    dz2    dxz  x2-y2    tot
    1  0.001  0.000  0.000  0.000  0.000  0.000  0.000  0.000  0.000  0.002
    2  0.375  0.000  0.000  0.000  0.000  0.000  0.000  0.000  0.000  0.375
tot    0.377  0.000  0.000  0.000  0.000  0.000  0.000  0.000  0.000  0.377

band     2 # energy   -5.46782754 # occ.  1.00000000

ion      s     py     pz     px    dxy    dyz    dz2    dxz  x2-y2    tot
    1  0.335  0.000  0.000  0.000  0.000  0.000  0.000  0.000  0.000  0.335
    2  0.004  0.000  0.000  0.000  0.000  0.000  0.000  0.000  0.000  0.004
tot    0.339  0.000  0.000  0.000  0.000  0.000  0.000  0.000  0.000  0.339

band     3 # energy   -1.88563651 # occ.  0.00000000

ion      s     py     pz     px    dxy    dyz    dz2    dxz  x2-y2    tot
    1  0.000  0.115  0.000  0.140  0.000  0.000  0.000  0.000  0.000  0.255
    2  0.000  0.000  0.000  0.000  0.000  0.000  0.000  0.000  0.000  0.000
tot    0.000  0.115  0.000  0.140  0.000  0.000  0.000  0.000  0.000  0.255

band     4 # energy   -1.88563650 # occ.  0.00000000

ion      s     py     pz     px    dxy    dyz    dz2    dxz  x2-y2    tot
    1  0.000  0.140  0.000  0.115  0.000  0.000  0.000  0.000  0.000  0.255
    2  0.000  0.000  0.000  0.000  0.000  0.000  0.000  0.000  0.000  0.000
tot    0.000  0.140  0.000  0.115  0.000  0.000  0.000  0.000  0.000  0.255

band     5 # energy   -1.86456800 # occ.  0.00000000

ion      s     py     pz     px    dxy    dyz    dz2    dxz  x2-y2    tot
    1  0.000  0.000  0.254  0.000  0.000  0.000  0.000  0.000  0.000  0.254
    2  0.004  0.000  0.000  0.000  0.000  0.000  0.000  0.000  0.000  0.004
tot    0.004  0.000  0.254  0.000  0.000  0.000  0.000  0.000  0.000  0.258

band     6 # energy   -0.26500344 # occ.  0.00000000

ion      s     py     pz     px    dxy    dyz    dz2    dxz  x2-y2    tot
    1  0.016  0.000  0.002  0.000  0.000  0.000  0.000  0.000  0.000  0.018
    2  0.007  0.000  0.000  0.000  0.000  0.000  0.000  0.000  0.000  0.007
tot    0.024  0.000  0.002  0.000  0.000  0.000  0.000  0.000  0.000  0.025

# of k-points:    1         # of bands:    6         # of ions:    2

 k-point     1 :    0.00000000 0.00000000 0.00000000     weight = 1.00000000

band     1 # energy   -5.48461571 # occ.  1.00000000

ion      s     py     pz     px    dxy    dyz    dz2    dxz  x2-y2    tot
    1  0.334  0.000  0.000  0.000  0.000  0.000  0.000  0.000  0.000  0.334
    2  0.000  0.000  0.000  0.000  0.000  0.000  0.000  0.000  0.000  0.000
tot    0.334  0.000  0.000  0.000  0.000  0.000  0.000  0.000  0.000  0.334

band     2 # energy   -1.97685117 # occ.  0.00000000

ion      s     py     pz     px    dxy    dyz    dz2    dxz  x2-y2    tot
    1  0.000  0.000  0.231  0.000  0.000  0.000  0.000  0.000  0.000  0.232
    2  0.008  0.000  0.000  0.000  0.000  0.000  0.000  0.000  0.000  0.008
tot    0.009  0.000  0.231  0.000  0.000  0.000  0.000  0.000  0.000  0.240

band     3 # energy   -1.87485711 # occ.  0.00000000

ion      s     py     pz     px    dxy    dyz    dz2    dxz  x2-y2    tot
    1  0.000  0.255  0.000  0.001  0.000  0.000  0.000  0.000  0.000  0.256
    2  0.000  0.000  0.000  0.000  0.000  0.000  0.000  0.000  0.000  0.000
tot    0.000  0.255  0.000  0.001  0.000  0.000  0.000  0.000  0.000  0.256

band     4 # energy   -1.87485710 # occ.  0.00000000

ion      s     py     pz     px    dxy    dyz    dz2    dxz  x2-y2    tot
    1  0.000  0.001  0.000  0.255  0.000  0.000  0.000  0.000  0.000  0.256
    2  0.000  0.000  0.000  0.000  0.000  0.000  0.000  0.000  0.000  0.000
tot    0.000  0.001  0.000  0.255  0.000  0.000  0.000  0.000  0.000  0.256

band     5 # energy   -0.46813793 # occ.  0.00000000

ion      s     py     pz     px    dxy    dyz    dz2    dxz  x2-y2    tot
    1  0.020  0.000  0.014  0.000  0.000  0.000  0.000  0.000  0.000  0.034
    2  0.049  0.000  0.000  0.000  0.000  0.000  0.000  0.000  0.000  0.049
tot    0.069  0.000  0.014  0.000  0.000  0.000  0.000  0.000  0.000  0.083

band     6 # energy    0.24048849 # occ.  0.00000000

ion      s     py     pz     px    dxy    dyz    dz2    dxz  x2-y2    tot
    1  0.003  0.000  0.020  0.000  0.000  0.000  0.000  0.000  0.000  0.023
    2  0.058  0.000  0.000  0.000  0.000  0.000  0.000  0.000  0.000  0.058
tot    0.061  0.000  0.020  0.000  0.000  0.000  0.000  0.000  0.000  0.081

