PROCAR lm decomposed
# of k-points:    1         # of bands:    6         # of ions:    2

 k-point     1 :    0.00000000 0.00000000 0.00000000     weight = 1.00000000

band     1 # energy   -8.89979423 # occ.  1.00000000

ion      s     py     pz     px    dxy    dyz    dz2    dxz  x2-y2    tot
    1  0.339  0.000  0.240  0.000  0.000  0.000  0.000  0.000  0.000  0.579
    2  0.443  0.000  0.012  0.000  0.000  0.000  0.000  0.000  0.000  0.455
tot    0.782  0.000  0.252  0.000  0.000  0.000  0.000  0.000  0.000  1.034

band     2 # energy   -4.47643911 # occ.  1.00000000

ion      s     py     pz     px    dxy    dyz    dz2    dxz  x2-y2    tot
    1  0.086  0.000  0.315  0.000  0.000  0.000  0.000  0.000  0.000  0.401
    2  0.041  0.000  0.013  0.000  0.000  0.000  0.000  0.000  0.000  0.054
tot    0.127  0.000  0.328  0.000  0.000  0.000  0.000  0.000  0.000  0.455

band     3 # energy   -2.32653548 # occ.  0.00000000

ion      s     py     pz     px    dxy    dyz    dz2    dxz  x2-y2    tot
    1  0.000  0.009  0.000  0.321  0.000  0.000  0.000  0.000  0.000  0.330
    2  0.000  0.002  0.000  0.073  0.000  0.000  0.000  0.000  0.000  0.075
tot    0.000  0.011  0.000  0.394  0.000  0.000  0.000  0.000  0.000  0.405

band     4 # energy   -2.32653547 # occ.  0.00000000

ion      s     py     pz     px    dxy    dyz    dz2    dxz  x2-y2    tot
    1  0.000  0.321  0.000  0.009  0.000  0.000  0.000  0.000  0.000  0.330
    2  0.000  0.073  0.000  0.002  0.000  0.000  0.000  0.000  0.000  0.075
tot    0.000  0.394  0.000  0.011  0.000  0.000  0.000  0.000  0.000  0.405

band     5 # energy   -0.32839868 # occ.  0.00000000

ion      s     py     pz     px    dxy    dyz    dz2    dxz  x2-y2    tot
    1  0.018  0.000  0.004  0.000  0.000  0.000  0.000  0.000  0.000  0.022
    2  0.003  0.000  0.000  0.000  0.000  0.000  0.000  0.000  0.000  0.003
tot    0.020  0.000  0.004  0.000  0.000  0.000  0.000  0.000  0.000  0.025

band     6 # energy    0.58656703 # occ.  0.00000000

ion      s     py     pz     px    dxy    dyz    dz2    dxz  x2-y2    tot
    1  0.002  0.000  0.018  0.000  0.000  0.000  0.000  0.000  0.000  0.020
    2  0.013  0.000  0.001  0.000  0.000  0.000  0.000  0.000  0.000  0.014
tot    0.015  0.000  0.019  0.000  0.000  0.000  0.000  0.000  0.000  0.034

# of k-points:    1         # of bands:    6         # of ions:    2

 k-point     1 :    0.00000000 0.00000000 0.00000000     weight = 1.00000000

band     1 # energy   -8.52837271 # occ.  1.00000000

ion      s     py     pz     px    dxy    dyz    dz2    dxz  x2-y2    tot
    1  0.323  0.000  0.259  0.000  0.000  0.000  0.000  0.000  0.000  0.582
    2  0.441  0.000  0.012  0.000  0.000  0.000  0.000  0.000  0.000  0.452
tot    0.763  0.000  0.271  0.000  0.000  0.000  0.000  0.000  0.000  1.034

band     2 # energy   -1.74973568 # occ.  0.00000000

ion      s     py     pz     px    dxy    dyz    dz2    dxz  x2-y2    tot
    1  0.065  0.000  0.244  0.000  0.000  0.000  0.000  0.000  0.000  0.309
    2  0.043  0.000  0.013  0.000  0.000  0.000  0.000  0.000  0.000  0.056
tot    0.108  0.000  0.257  0.000  0.000  0.000  0.000  0.000  0.000  0.365

band     3 # energy   -1.53014641 # occ.  0.00000000

ion      s     py     pz     px    dxy    dyz    dz2    dxz  x2-y2    tot
    1  0.000  0.255  0.000  0.059  0.000  0.000  0.000  0.000  0.000  0.315
    2  0.000  0.066  0.000  0.015  0.000  0.000  0.000  0.000  0.000  0.081
tot    0.000  0.321  0.000  0.074  0.000  0.000  0.000  0.000  0.000  0.396

band     4 # energy   -1.53014641 # occ.  0.00000000

ion      s     py     pz     px    dxy    dyz    dz2    dxz  x2-y2    tot
    1  0.000  0.059  0.000  0.255  0.000  0.000  0.000  0.000  0.000  0.315
    2  0.000  0.015  0.000  0.066  0.000  0.000  0.000  0.000  0.000  0.081
tot    0.000  0.074  0.000  0.321  0.000  0.000  0.000  0.000  0.000  0.396

band     5 # energy    0.05777081 # occ.  0.00000000

ion      s     py     pz     px    dxy    dyz    dz2    dxz  x2-y2    tot
    1  0.019  0.000  0.006  0.000  0.000  0.000  0.000  0.000  0.000  0.025
    2  0.002  0.000  0.000  0.000  0.000  0.000  0.000  0.000  0.000  0.002
tot    0.021  0.000  0.007  0.000  0.000  0.000  0.000  0.000  0.000  0.027

band     6 # energy    1.00391997 # occ.  0.00000000

ion      s     py     pz     px    dxy    dyz    dz2    dxz  x2-y2    tot
    1  0.004  0.000  0.011  0.000  0.000  0.000  0.000  0.000  0.000  0.014
    2  0.013  0.000  0.000  0.000  0.000  0.000  0.000  0.000  0.000  0.013
tot    0.017  0.000  0.011  0.000  0.000  0.000  0.000  0.000  0.000  0.028

