PROCAR lm decomposed
# of k-points:    1         # of bands:    6         # of ions:    2

 k-point     1 :    0.00000000 0.00000000 0.00000000     weight = 1.00000000

band     1 # energy   -8.52775735 # occ.  1.00000000

ion      s     py     pz     px    dxy    dyz    dz2    dxz  x2-y2    tot
    1  0.396  0.000  0.038  0.000  0.000  0.000  0.000  0.000  0.000  0.434
    2  0.303  0.000  0.008  0.000  0.000  0.000  0.000  0.000  0.000  0.311
tot    0.699  0.000  0.046  0.000  0.000  0.000  0.000  0.000  0.000  0.745

band     2 # energy   -4.33971308 # occ.  1.00000000

ion      s     py     pz     px    dxy    dyz    dz2    dxz  x2-y2    tot
    1  0.020  0.000  0.434  0.000  0.000  0.000  0.000  0.000  0.000  0.455
    2  0.020  0.000  0.177  0.000  0.000  0.000  0.000  0.000  0.000  0.196
tot    0.040  0.000  0.611  0.000  0.000  0.000  0.000  0.000  0.000  0.651

band     3 # energy   -3.78035135 # occ.  0.00000000

ion      s     py     pz     px    dxy    dyz    dz2    dxz  x2-y2    tot
    1  0.000  0.335  0.000  0.106  0.000  0.000  0.000  0.000  0.000  0.441
    2  0.000  0.160  0.000  0.051  0.000  0.000  0.000  0.000  0.000  0.211
tot    0.000  0.495  0.000  0.157  0.000  0.000  0.000  0.000  0.000  0.652

band     4 # energy   -3.78035128 # occ.  0.00000000

ion      s     py     pz     px    dxy    dyz    dz2    dxz  x2-y2    tot
    1  0.000  0.106  0.000  0.335  0.000  0.000  0.000  0.000  0.000  0.441
    2  0.000  0.051  0.000  0.160  0.000  0.000  0.000  0.000  0.000  0.211
tot    0.000  0.157  0.000  0.495  0.000  0.000  0.000  0.000  0.000  0.652

band     5 # energy   -0.25802128 # occ.  0.00000000

ion      s     py     pz     px    dxy    dyz    dz2    dxz  x2-y2    tot
    1  0.016  0.000  0.002  0.000  0.000  0.000  0.000  0.000  0.000  0.018
    2  0.011  0.000  0.001  0.000  0.000  0.000  0.000  0.000  0.000  0.012
tot    0.027  0.000  0.003  0.000  0.000  0.000  0.000  0.000  0.000  0.030

band     6 # energy    0.80268762 # occ.  0.00000000

ion      s     py     pz     px    dxy    dyz    dz2    dxz  x2-y2    tot
    1  0.002  0.000  0.028  0.000  0.000  0.000  0.000  0.000  0.000  0.030
    2  0.007  0.000  0.015  0.000  0.000  0.000  0.000  0.000  0.000  0.021
tot    0.009  0.000  0.042  0.000  0.000  0.000  0.000  0.000  0.000  0.051

# of k-points:    1         # of bands:    6         # of ions:    2

 k-point     1 :    0.00000000 0.00000000 0.00000000     weight = 1.00000000

band     1 # energy   -7.77486316 # occ.  1.00000000

ion      s     py     pz     px    dxy    dyz    dz2    dxz  x2-y2    tot
    1  0.375  0.000  0.052  0.000  0.000  0.000  0.000  0.000  0.000  0.427
    2  0.297  0.000  0.010  0.000  0.000  0.000  0.000  0.000  0.000  0.307
tot    0.672  0.000  0.062  0.000  0.000  0.000  0.000  0.000  0.000  0.734

band     2 # energy   -3.20584093 # occ.  0.00000000

ion      s     py     pz     px    dxy    dyz    dz2    dxz  x2-y2    tot
    1  0.000  0.104  0.000  0.314  0.000  0.000  0.000  0.000  0.000  0.419
    2  0.000  0.051  0.000  0.152  0.000  0.000  0.000  0.000  0.000  0.203
tot    0.000  0.155  0.000  0.467  0.000  0.000  0.000  0.000  0.000  0.622

band     3 # energy   -3.20584084 # occ.  0.00000000

ion      s     py     pz     px    dxy    dyz    dz2    dxz  x2-y2    tot
    1  0.000  0.314  0.000  0.104  0.000  0.000  0.000  0.000  0.000  0.419
    2  0.000  0.152  0.000  0.051  0.000  0.000  0.000  0.000  0.000  0.203
tot    0.000  0.467  0.000  0.155  0.000  0.000  0.000  0.000  0.000  0.622

band     4 # energy   -2.61367629 # occ.  0.00000000

ion      s     py     pz     px    dxy    dyz    dz2    dxz  x2-y2    tot
    1  0.021  0.000  0.355  0.000  0.000  0.000  0.000  0.000  0.000  0.376
    2  0.014  0.000  0.148  0.000  0.000  0.000  0.000  0.000  0.000  0.162
tot    0.034  0.000  0.503  0.000  0.000  0.000  0.000  0.000  0.000  0.538

band     5 # energy   -0.18087141 # occ.  0.00000000

ion      s     py     pz     px    dxy    dyz    dz2    dxz  x2-y2    tot
    1  0.016  0.000  0.003  0.000  0.000  0.000  0.000  0.000  0.000  0.019
    2  0.009  0.000  0.001  0.000  0.000  0.000  0.000  0.000  0.000  0.011
tot    0.025  0.000  0.004  0.000  0.000  0.000  0.000  0.000  0.000  0.030

band     6 # energy    0.90754824 # occ.  0.00000000

ion      s     py     pz     px    dxy    dyz    dz2    dxz  x2-y2    tot
    1  0.004  0.000  0.021  0.000  0.000  0.000  0.000  0.000  0.000  0.024
    2  0.009  0.000  0.010  0.000  0.000  0.000  0.000  0.000  0.000  0.019
tot    0.012  0.000  0.031  0.000  0.000  0.000  0.000  0.000  0.000  0.043

