 running on    1 total cores
 distrk:  each k-point on    1 cores,    1 groups
 distr:  one band on    1 cores,    1 groups
 vasp.6.2.1 16May21 (build Dec 20 2021 17:02:34) complex                         
 POSCAR found :  2 types and       2 ions
 scaLAPACK will be used
 -----------------------------------------------------------------------------
|                                                                             |
|               ----> ADVICE to this user running VASP <----                  |
|                                                                             |
|     You have a (more or less) 'small supercell' and for smaller cells       |
|     it is recommended to use the reciprocal-space projection scheme!        |
|     The real-space optimization is not efficient for small cells and it     |
|     is also less accurate ...                                               |
|     Therefore, set LREAL=.FALSE. in the INCAR file.                         |
|                                                                             |
 -----------------------------------------------------------------------------

 LDA part: xc-table for Pade appr. of Perdew
 POSCAR, INCAR and KPOINTS ok, starting setup
 FFT: planning ...
 WAVECAR not read
 entering main loop
       N       E                     dE             d eps       ncg     rms          rms(c)
DAV:   1     0.640013487170E+01    0.64001E+01   -0.32286E+02    24   0.150E+02
DAV:   2    -0.219348583923E+00   -0.66195E+01   -0.66195E+01    36   0.243E+01
DAV:   3    -0.125551667789E+01   -0.10362E+01   -0.10362E+01    36   0.150E+01
DAV:   4    -0.126344451295E+01   -0.79278E-02   -0.79278E-02    24   0.182E+00
DAV:   5    -0.126351713985E+01   -0.72627E-04   -0.72627E-04    24   0.173E-01    0.491E+00
DAV:   6    -0.307443326021E+00    0.95607E+00   -0.16916E+01    24   0.524E+00    0.475E+00
DAV:   7    -0.324543490226E+00   -0.17100E-01   -0.22284E+00    24   0.441E+00    0.201E+00
DAV:   8    -0.131390304054E+00    0.19315E+00   -0.24722E-01    24   0.248E+00    0.878E-01
DAV:   9    -0.714803409548E+00   -0.58341E+00   -0.19854E-01    24   0.212E+00    0.679E-01
DAV:  10    -0.961028837442E+00   -0.24623E+00   -0.51107E-02    24   0.101E+00    0.525E-01
DAV:  11    -0.101577102396E+01   -0.54742E-01   -0.10013E-02    24   0.485E-01    0.401E-01
DAV:  12    -0.101396134626E+01    0.18097E-02   -0.16088E-04    24   0.834E-02    0.405E-01
DAV:  13    -0.106897155901E+01   -0.55010E-01   -0.60535E-03    24   0.332E-01    0.328E-01
DAV:  14    -0.111960170029E+01   -0.50630E-01   -0.12327E-02    24   0.470E-01    0.218E-01
DAV:  15    -0.113123946734E+01   -0.11638E-01   -0.25693E-03    24   0.240E-01    0.168E-01
DAV:  16    -0.113819095013E+01   -0.69515E-02   -0.14495E-03    24   0.171E-01    0.133E-01
DAV:  17    -0.114688990698E+01   -0.86990E-02   -0.15429E-03    24   0.155E-01    0.921E-02
DAV:  18    -0.115334120012E+01   -0.64513E-02   -0.14809E-03    24   0.157E-01    0.612E-02
DAV:  19    -0.116053561369E+01   -0.71944E-02   -0.51079E-03    24   0.238E-01    0.184E-02
DAV:  20    -0.116203674158E+01   -0.15011E-02   -0.26977E-03    30   0.188E-01    0.785E-03
DAV:  21    -0.116251684555E+01   -0.48010E-03   -0.52635E-04    30   0.934E-02    0.431E-03
DAV:  22    -0.116275993990E+01   -0.24309E-03   -0.21271E-04    30   0.587E-02    0.207E-03
DAV:  23    -0.116288898724E+01   -0.12905E-03   -0.98907E-05    24   0.348E-02    0.168E-03
DAV:  24    -0.116292106626E+01   -0.32079E-04   -0.18208E-05    24   0.182E-02    0.162E-03
DAV:  25    -0.116295478735E+01   -0.33721E-04   -0.33655E-06    24   0.823E-03    0.114E-03
DAV:  26    -0.116297065849E+01   -0.15871E-04   -0.23654E-06    30   0.498E-03    0.917E-04
DAV:  27    -0.116298926405E+01   -0.18606E-04   -0.23921E-05    30   0.118E-02    0.575E-04
DAV:  28    -0.116299105451E+01   -0.17905E-05   -0.17699E-06    30   0.469E-03    0.503E-04
DAV:  29    -0.116299334377E+01   -0.22893E-05   -0.31098E-06    24   0.446E-03    0.391E-04
DAV:  30    -0.116299382749E+01   -0.48372E-06   -0.62186E-07    30   0.276E-03
   1 F= -.11629938E+01 E0= -.11629938E+01  d E =-.105696E-21  mag=     1.0000
