<?xml version="1.0" encoding="ISO-8859-1"?>
<modeling>
 <generator>
  <i name="program" type="string">vasp </i>
  <i name="version" type="string">6.2.1  </i>
  <i name="subversion" type="string">16May21 (build Dec 20 2021 17:02:34) complex                          parallel </i>
  <i name="platform" type="string">LinuxGNU </i>
  <i name="date" type="string">2025 11 28 </i>
  <i name="time" type="string">04:55:46 </i>
 </generator>
 <incar>
  <i type="int" name="ISTART">     0</i>
  <i type="string" name="PREC">Normal</i>
  <i type="string" name="ALGO">Normal</i>
  <i type="int" name="ISPIN">     2</i>
  <i type="int" name="ICHARG">     2</i>
  <i type="int" name="NELM">   100</i>
  <i type="int" name="NELMIN">     4</i>
  <i type="int" name="IBRION">    -1</i>
  <i name="EDIFF">      0.00000100</i>
  <i type="int" name="NSW">     0</i>
  <i type="int" name="ISYM">     0</i>
  <i name="ENCUT">    500.00000000</i>
  <v name="MAGMOM">      0.80000000      0.20000000</v>
  <i type="string" name="LREAL">Auto</i>
  <i type="int" name="ISMEAR">     0</i>
  <i name="SIGMA">      0.01000000</i>
  <i type="logical" name="LWAVE"> F  </i>
  <i type="logical" name="LCHARG"> F  </i>
  <i type="int" name="LORBIT">    11</i>
  <i type="string" name="GGA">PE</i>
 </incar>
 <primitive_cell>
  <structure name="primitive_cell" >
   <crystal>
    <varray name="basis" >
     <v>      10.00000000       0.00000000       0.00000000 </v>
     <v>       0.00000000      10.00000000       0.00000000 </v>
     <v>       0.00000000       0.00000000      11.34827000 </v>
    </varray>
    <i name="volume">   1134.82700000 </i>
    <varray name="rec_basis" >
     <v>       0.10000000       0.00000000       0.00000000 </v>
     <v>       0.00000000       0.10000000       0.00000000 </v>
     <v>       0.00000000       0.00000000       0.08811916 </v>
    </varray>
   </crystal>
   <varray name="positions" >
    <v>       0.50000000       0.50000000       0.67183236 </v>
    <v>       0.50000000       0.50000000       0.32816764 </v>
   </varray>
  </structure>
  <varray name="primitive_index" >
   <v type="int" >        1 </v>
   <v type="int" >        2 </v>
  </varray>
 </primitive_cell>
 <kpoints>
  <generation param="Monkhorst-Pack">
   <v type="int" name="divisions">       1        1        1 </v>
   <v name="usershift">      0.00000000       0.00000000       0.00000000 </v>
   <v name="genvec1">      1.00000000       0.00000000       0.00000000 </v>
   <v name="genvec2">      0.00000000       1.00000000       0.00000000 </v>
   <v name="genvec3">      0.00000000       0.00000000       1.00000000 </v>
   <v name="shift">      0.00000000       0.00000000       0.00000000 </v>
  </generation>
  <varray name="kpointlist" >
   <v>       0.00000000       0.00000000       0.00000000 </v>
  </varray>
  <varray name="weights" >
   <v>       1.00000000 </v>
  </varray>
 </kpoints>
 <parameters>
  <separator name="general" >
   <i type="string" name="SYSTEM">unknown system</i>
   <i type="logical" name="LCOMPAT"> F  </i>
  </separator>
  <separator name="electronic" >
   <i type="string" name="PREC">normal</i>
   <i name="ENMAX">    500.00000000</i>
   <i name="ENAUG">    400.00000000</i>
   <i name="EDIFF">      0.00000100</i>
   <i type="int" name="IALGO">    38</i>
   <i type="int" name="IWAVPR">    10</i>
   <i type="int" name="NBANDS">     6</i>
   <i type="int" name="NBANDSLOW">    -1</i>
   <i type="int" name="NBANDSHIGH">    -1</i>
   <i name="NELECT">      3.00000000</i>
   <i type="int" name="TURBO">     0</i>
   <i type="int" name="IRESTART">     0</i>
   <i type="int" name="NREBOOT">     0</i>
   <i type="int" name="NMIN">     0</i>
   <i name="EREF">      0.00000000</i>
   <separator name="electronic smearing" >
    <i type="int" name="ISMEAR">     0</i>
    <i name="SIGMA">      0.01000000</i>
    <i name="KSPACING">      0.50000000</i>
    <i type="logical" name="KGAMMA"> T  </i>
    <i type="logical" name="KBLOWUP"> T  </i>
   </separator>
   <separator name="electronic projectors" >
    <i type="logical" name="LREAL"> T  </i>
    <v name="ROPT">     -0.00050000     -0.00050000</v>
    <i type="int" name="LMAXPAW">  -100</i>
    <i type="int" name="LMAXMIX">     2</i>
    <i type="logical" name="NLSPLINE"> F  </i>
   </separator>
   <separator name="electronic startup" >
    <i type="int" name="ISTART">     0</i>
    <i type="int" name="ICHARG">     2</i>
    <i type="int" name="INIWAV">     1</i>
   </separator>
   <separator name="electronic spin" >
    <i type="int" name="ISPIN">     2</i>
    <i type="logical" name="LNONCOLLINEAR"> F  </i>
    <v name="MAGMOM">      0.80000000      0.20000000</v>
    <i name="NUPDOWN">     -1.00000000</i>
    <i type="logical" name="LSORBIT"> F  </i>
    <v name="SAXIS">      0.00000000      0.00000000      1.00000000</v>
    <i type="logical" name="LSPIRAL"> F  </i>
    <v name="QSPIRAL">      0.00000000      0.00000000      0.00000000</v>
    <i type="logical" name="LZEROZ"> F  </i>
   </separator>
   <separator name="electronic exchange-correlation" >
    <i type="logical" name="LASPH"> F  </i>
    <i type="logical" name="LMETAGGA"> F  </i>
   </separator>
   <separator name="electronic convergence" >
    <i type="int" name="NELM">   100</i>
    <i type="int" name="NELMDL">    -5</i>
    <i type="int" name="NELMIN">     4</i>
    <i name="ENINI">    500.00000000</i>
    <separator name="electronic convergence detail" >
     <i type="logical" name="LDIAG"> T  </i>
     <i type="logical" name="LSUBROT"> F  </i>
     <i name="WEIMIN">      0.00000000</i>
     <i name="EBREAK">      0.00000004</i>
     <i name="DEPER">      0.30000000</i>
     <i type="int" name="NRMM">     4</i>
     <i name="TIME">      0.40000000</i>
    </separator>
   </separator>
   <separator name="electronic mixer" >
    <i name="AMIX">      0.40000000</i>
    <i name="BMIX">      1.00000000</i>
    <i name="AMIN">      0.10000000</i>
    <i name="AMIX_MAG">      1.60000000</i>
    <i name="BMIX_MAG">      1.00000000</i>
    <separator name="electronic mixer details" >
     <i type="int" name="IMIX">     4</i>
     <i type="logical" name="MIXFIRST"> F  </i>
     <i type="int" name="MAXMIX">   -45</i>
     <i name="WC">    100.00000000</i>
     <i type="int" name="INIMIX">     1</i>
     <i type="int" name="MIXPRE">     1</i>
     <i type="int" name="MREMOVE">     5</i>
    </separator>
   </separator>
   <separator name="electronic dipolcorrection" >
    <i type="logical" name="LDIPOL"> F  </i>
    <i type="logical" name="LMONO"> F  </i>
    <i type="int" name="IDIPOL">     0</i>
    <i name="EPSILON">      1.00000000</i>
    <v name="DIPOL">   -100.00000000   -100.00000000   -100.00000000</v>
    <i name="EFIELD">      0.00000000</i>
   </separator>
  </separator>
  <separator name="grids" >
   <i type="int" name="NGX">    56</i>
   <i type="int" name="NGY">    56</i>
   <i type="int" name="NGZ">    64</i>
   <i type="int" name="NGXF">   112</i>
   <i type="int" name="NGYF">   112</i>
   <i type="int" name="NGZF">   128</i>
   <i type="logical" name="ADDGRID"> F  </i>
  </separator>
  <separator name="ionic" >
   <i type="int" name="NSW">     0</i>
   <i type="int" name="IBRION">    -1</i>
   <i type="int" name="MDALGO">     0</i>
   <i type="int" name="ISIF">     2</i>
   <i name="PSTRESS">      0.00000000</i>
   <i name="EDIFFG">      0.00001000</i>
   <i type="int" name="NFREE">     0</i>
   <i name="POTIM">      0.50000000</i>
   <i name="SMASS">     -3.00000000</i>
   <i name="SCALEE">      1.00000000</i>
  </separator>
  <separator name="ionic md" >
   <i name="TEBEG">      0.00010000</i>
   <i name="TEEND">      0.00010000</i>
   <i type="int" name="NBLOCK">     1</i>
   <i type="int" name="KBLOCK">     1</i>
   <i type="int" name="NPACO">   256</i>
   <i name="APACO">     16.00000000</i>
  </separator>
  <separator name="symmetry" >
   <i type="int" name="ISYM">     0</i>
   <i name="SYMPREC">      0.00001000</i>
  </separator>
  <separator name="dos" >
   <i type="int" name="LORBIT">    11</i>
   <v name="RWIGS">     -1.00000000     -1.00000000</v>
   <i type="int" name="NEDOS">   301</i>
   <i name="EMIN">     10.00000000</i>
   <i name="EMAX">    -10.00000000</i>
   <i name="EFERMI">      0.00000000</i>
  </separator>
  <separator name="writing" >
   <i type="int" name="NWRITE">     2</i>
   <i type="logical" name="LWAVE"> F  </i>
   <i type="logical" name="LDOWNSAMPLE"> F  </i>
   <i type="logical" name="LCHARG"> F  </i>
   <i type="logical" name="LPARD"> F  </i>
   <i type="logical" name="LVTOT"> F  </i>
   <i type="logical" name="LVHAR"> F  </i>
   <i type="logical" name="LELF"> F  </i>
   <i type="logical" name="LOPTICS"> F  </i>
   <v name="STM">      0.00000000      0.00000000      0.00000000      0.00000000      0.00000000      0.00000000      0.00000000</v>
  </separator>
  <separator name="performance" >
   <i type="int" name="NPAR">     1</i>
   <i type="int" name="NSIM">     4</i>
   <i type="int" name="NBLK">    -1</i>
   <i type="logical" name="LPLANE"> T  </i>
   <i type="logical" name="LSCALAPACK"> T  </i>
   <i type="logical" name="LSCAAWARE"> F  </i>
   <i type="logical" name="LSCALU"> F  </i>
   <i type="logical" name="LASYNC"> F  </i>
   <i type="logical" name="LORBITALREAL"> F  </i>
  </separator>
  <separator name="miscellaneous" >
   <i type="int" name="IDIOT">     3</i>
   <i type="int" name="PHON_NSTRUCT">    -1</i>
   <i type="logical" name="LMUSIC"> F  </i>
   <v name="POMASS">      9.01300000      1.00000000</v>
   <v name="DARWINR">      0.00000000      0.00000000</v>
   <v name="DARWINV">      1.00000000      1.00000000</v>
   <i type="logical" name="LCORR"> T  </i>
  </separator>
  <i type="logical" name="GGA_COMPAT"> T  </i>
  <i type="logical" name="LBERRY"> F  </i>
  <i type="int" name="ICORELEVEL">     0</i>
  <i type="logical" name="LDAU"> F  </i>
  <i type="int" name="I_CONSTRAINED_M">     0</i>
  <separator name="electronic exchange-correlation" >
   <i type="string" name="GGA">PE</i>
   <i type="int" name="VOSKOWN">     0</i>
   <i type="logical" name="LHFCALC"> F  </i>
   <i type="string" name="PRECFOCK"></i>
   <i type="logical" name="LSYMGRAD"> F  </i>
   <i type="logical" name="LHFONE"> F  </i>
   <i type="logical" name="LRHFCALC"> F  </i>
   <i type="logical" name="LTHOMAS"> F  </i>
   <i type="logical" name="LMODELHF"> F  </i>
   <i type="logical" name="LFOCKACE"> F  </i>
   <i name="ENCUT4O">     -1.00000000</i>
   <i type="int" name="EXXOEP">     0</i>
   <i type="int" name="FOURORBIT">     0</i>
   <i name="AEXX">      0.00000000</i>
   <i name="HFALPHA">      0.00000000</i>
   <i name="MCALPHA">      0.00000000</i>
   <i name="ALDAX">      1.00000000</i>
   <i name="AGGAX">      1.00000000</i>
   <i name="ALDAC">      1.00000000</i>
   <i name="AGGAC">      1.00000000</i>
   <i type="int" name="NKREDX">     1</i>
   <i type="int" name="NKREDY">     1</i>
   <i type="int" name="NKREDZ">     1</i>
   <i type="logical" name="SHIFTRED"> F  </i>
   <i type="logical" name="ODDONLY"> F  </i>
   <i type="logical" name="EVENONLY"> F  </i>
   <i type="int" name="LMAXFOCK">     0</i>
   <i type="int" name="NMAXFOCKAE">     0</i>
   <i type="logical" name="LFOCKAEDFT"> F  </i>
   <i name="HFSCREEN">      0.00000000</i>
   <i name="HFSCREENC">      0.00000000</i>
   <i type="int" name="NBANDSGWLOW">     0</i>
  </separator>
  <separator name="vdW DFT" >
   <i type="logical" name="LUSE_VDW"> F  </i>
   <i name="Zab_VDW">     -0.84910000</i>
   <i name="PARAM1">      0.12340000</i>
   <i name="PARAM2">      1.00000000</i>
   <i name="PARAM3">      0.00000000</i>
  </separator>
  <separator name="model GW" >
   <i type="int" name="MODEL_GW">     0</i>
   <i name="MODEL_EPS0">    340.44810000</i>
   <i name="MODEL_ALPHA">      1.00000000</i>
  </separator>
  <separator name="linear response parameters" >
   <i type="logical" name="LEPSILON"> F  </i>
   <i type="logical" name="LRPA"> F  </i>
   <i type="logical" name="LNABLA"> F  </i>
   <i type="logical" name="LVEL"> F  </i>
   <i type="int" name="KINTER">     0</i>
   <i name="CSHIFT">      0.10000000</i>
   <i name="OMEGAMAX">     -1.00000000</i>
   <i name="DEG_THRESHOLD">      0.00200000</i>
   <i name="RTIME">     -0.10000000</i>
   <i name="WPLASMAI">      0.00000000</i>
   <v name="DFIELD">      0.00000000      0.00000000      0.00000000</v>
   <v name="WPLASMA">      0.00000000      0.00000000      0.00000000      0.00000000      0.00000000      0.00000000      0.00000000      0.00000000      0.00000000</v>
  </separator>
  <separator name="orbital magnetization" >
   <i type="logical" name="NUCIND"> F  </i>
   <v name="MAGPOS">      0.00000000      0.00000000      0.00000000</v>
   <i type="logical" name="LNICSALL"> T  </i>
   <i type="logical" name="ORBITALMAG"> F  </i>
   <i type="logical" name="LMAGBLOCH"> F  </i>
   <i type="logical" name="LCHIMAG"> F  </i>
   <i type="logical" name="LGAUGE"> T  </i>
   <i type="int" name="MAGATOM">     0</i>
   <v name="MAGDIPOL">      0.00000000      0.00000000      0.00000000</v>
   <v name="AVECCONST">      0.00000000      0.00000000      0.00000000</v>
  </separator>
  <separator name="response functions" >
   <i type="logical" name="LFINITE_TEMPERATURE"> F  </i>
   <i type="logical" name="LADDER"> F  </i>
   <i type="logical" name="LRPAFORCE"> F  </i>
   <i type="logical" name="LFXC"> F  </i>
   <i type="logical" name="LHARTREE"> T  </i>
   <i type="int" name="IBSE">     0</i>
   <v type="int" name="KPOINT">    -1     0     0     0</v>
   <i type="logical" name="LTCTC"> F  </i>
   <i type="logical" name="LTCTE"> F  </i>
   <i type="logical" name="LTETE"> F  </i>
   <i type="logical" name="LTRIPLET"> F  </i>
   <i type="logical" name="LFXCEPS"> F  </i>
   <i type="logical" name="LFXHEG"> F  </i>
   <i type="int" name="NATURALO">     2</i>
   <i type="logical" name="LHOLEGF"> F  </i>
   <i type="logical" name="L2ORDER"> F  </i>
   <i type="logical" name="LDMP1"> F  </i>
   <i type="logical" name="LMP2LT"> F  </i>
   <i type="logical" name="LSMP2LT"> F  </i>
   <i type="logical" name="LGWLF"> F  </i>
   <i name="ENCUTGW">     -2.00000000</i>
   <i name="ENCUTGWSOFT">     -2.00000000</i>
   <i name="ENCUTLF">     -1.00000000</i>
   <i type="logical" name="LESF_SPLINES"> F  </i>
   <i type="int" name="LMAXMP2">    -1</i>
   <i name="SCISSOR">      0.00000000</i>
   <i type="int" name="NOMEGA">     0</i>
   <i type="int" name="NOMEGAR">     0</i>
   <i type="int" name="NBANDSGW">    -1</i>
   <i type="int" name="NBANDSO">    -1</i>
   <i type="int" name="NBANDSV">    -1</i>
   <i type="int" name="NELM">   100</i>
   <i type="int" name="NELMHF">     1</i>
   <i type="int" name="DIM">     3</i>
   <i type="int" name="IESPILON">     4</i>
   <i type="int" name="ANTIRES">     0</i>
   <i name="OMEGAMAX">    -30.00000000</i>
   <i name="OMEGAMIN">    -30.00000000</i>
   <i name="OMEGATL">   -200.00000000</i>
   <i type="int" name="OMEGAGRID">     0</i>
   <i name="CSHIFT">     -0.10000000</i>
   <i type="logical" name="LSELFENERGY"> F  </i>
   <i type="logical" name="LSPECTRAL"> F  </i>
   <i type="logical" name="LSPECTRALGW"> F  </i>
   <i type="logical" name="LSINGLES"> F  </i>
   <i type="logical" name="LFERMIGW"> F  </i>
   <i type="logical" name="ODDONLYGW"> F  </i>
   <i type="logical" name="EVENONLYGW"> F  </i>
   <i type="int" name="NKREDLFX">     1</i>
   <i type="int" name="NKREDLFY">     1</i>
   <i type="int" name="NKREDLFZ">     1</i>
   <i type="int" name="MAXMEM">  2800</i>
   <i type="int" name="TELESCOPE">     0</i>
   <i type="int" name="NTAUPAR">    -1</i>
   <i type="int" name="NOMEGAPAR">    -1</i>
   <i name="DAMP_NEWTON">      0.80000001</i>
   <i name="LAMBDA">      1.00000000</i>
  </separator>
  <separator name="External order field" >
   <i name="OFIELD_KAPPA">      0.00000000</i>
   <v name="OFIELD_K">      0.00000000      0.00000000      0.00000000</v>
   <i name="OFIELD_Q6_NEAR">      0.00000000</i>
   <i name="OFIELD_Q6_FAR">      0.00000000</i>
   <i name="OFIELD_A">      0.00000000</i>
  </separator>
 </parameters>
 <atominfo>
  <atoms>       2 </atoms>
  <types>       2 </types>
  <array name="atoms" >
   <dimension dim="1">ion</dimension>
   <field type="string">element</field>
   <field type="int">atomtype</field>
   <set>
    <rc><c>Be</c><c>   1</c></rc>
    <rc><c>H </c><c>   2</c></rc>
   </set>
  </array>
  <array name="atomtypes" >
   <dimension dim="1">type</dimension>
   <field type="int">atomspertype</field>
   <field type="string">element</field>
   <field>mass</field>
   <field>valence</field>
   <field type="string">pseudopotential</field>
   <set>
    <rc><c>   1</c><c>Be</c><c>      9.01300000</c><c>      2.00000000</c><c>  PAW_PBE Be 06Sep2000                  </c></rc>
    <rc><c>   1</c><c>H </c><c>      1.00000000</c><c>      1.00000000</c><c>  PAW_PBE H 15Jun2001                   </c></rc>
   </set>
  </array>
 </atominfo>
 <structure name="initialpos" >
  <crystal>
   <varray name="basis" >
    <v>      10.00000000       0.00000000       0.00000000 </v>
    <v>       0.00000000      10.00000000       0.00000000 </v>
    <v>       0.00000000       0.00000000      11.34827000 </v>
   </varray>
   <i name="volume">   1134.82700000 </i>
   <varray name="rec_basis" >
    <v>       0.10000000       0.00000000       0.00000000 </v>
    <v>       0.00000000       0.10000000       0.00000000 </v>
    <v>       0.00000000       0.00000000       0.08811916 </v>
   </varray>
  </crystal>
  <varray name="positions" >
   <v>       0.50000000       0.50000000       0.67183236 </v>
   <v>       0.50000000       0.50000000       0.32816764 </v>
  </varray>
 </structure>
 <calculation>
  <scstep>
   <time name="dav">    0.32    0.32</time>
   <time name="total">    2.39    2.42</time>
   <energy>
    <i name="alphaZ">      0.02953063 </i>
    <i name="ewald">     -9.48330183 </i>
    <i name="hartreedc">    -17.77508605 </i>
    <i name="XCdc">      3.99439662 </i>
    <i name="pawpsdc">     17.31218835 </i>
    <i name="pawaedc">    -16.66372788 </i>
    <i name="eentropy">     -0.00000000 </i>
    <i name="bandstr">    -10.97951886 </i>
    <i name="atom">     39.96565389 </i>
    <i name="e_fr_energy">      6.40013487 </i>
    <i name="e_wo_entrp">      6.40013487 </i>
    <i name="e_0_energy">      6.40013487 </i>
   </energy>
  </scstep>
  <scstep>
   <time name="dav">    0.43    0.43</time>
   <time name="total">    0.43    0.43</time>
   <energy>
    <i name="e_fr_energy">     -0.21934858 </i>
    <i name="e_wo_entrp">     -0.21934858 </i>
    <i name="e_0_energy">     -0.21934858 </i>
   </energy>
  </scstep>
  <scstep>
   <time name="dav">    0.36    0.36</time>
   <time name="total">    0.36    0.36</time>
   <energy>
    <i name="e_fr_energy">     -1.25551668 </i>
    <i name="e_wo_entrp">     -1.25551668 </i>
    <i name="e_0_energy">     -1.25551668 </i>
   </energy>
  </scstep>
  <scstep>
   <time name="dav">    0.26    0.26</time>
   <time name="total">    0.26    0.26</time>
   <energy>
    <i name="e_fr_energy">     -1.26344451 </i>
    <i name="e_wo_entrp">     -1.26344451 </i>
    <i name="e_0_energy">     -1.26344451 </i>
   </energy>
  </scstep>
  <scstep>
   <time name="dav">    0.26    0.26</time>
   <time name="total">    0.36    0.36</time>
   <energy>
    <i name="e_fr_energy">     -1.26351714 </i>
    <i name="e_wo_entrp">     -1.26351714 </i>
    <i name="e_0_energy">     -1.26351714 </i>
   </energy>
  </scstep>
  <scstep>
   <time name="dav">    0.26    0.26</time>
   <time name="total">    2.34    2.35</time>
   <energy>
    <i name="e_fr_energy">     -0.30744333 </i>
    <i name="e_wo_entrp">     -0.30744333 </i>
    <i name="e_0_energy">     -0.30744333 </i>
   </energy>
  </scstep>
  <scstep>
   <time name="dav">    0.25    0.25</time>
   <time name="total">    2.31    2.31</time>
   <energy>
    <i name="e_fr_energy">     -0.32454349 </i>
    <i name="e_wo_entrp">     -0.32454349 </i>
    <i name="e_0_energy">     -0.32454349 </i>
   </energy>
  </scstep>
  <scstep>
   <time name="dav">    0.25    0.25</time>
   <time name="total">    2.29    2.30</time>
   <energy>
    <i name="e_fr_energy">     -0.13139030 </i>
    <i name="e_wo_entrp">     -0.13139030 </i>
    <i name="e_0_energy">     -0.13139030 </i>
   </energy>
  </scstep>
  <scstep>
   <time name="dav">    0.25    0.25</time>
   <time name="total">    2.30    2.30</time>
   <energy>
    <i name="e_fr_energy">     -0.71480341 </i>
    <i name="e_wo_entrp">     -0.71480341 </i>
    <i name="e_0_energy">     -0.71480341 </i>
   </energy>
  </scstep>
  <scstep>
   <time name="dav">    0.25    0.25</time>
   <time name="total">    2.28    2.28</time>
   <energy>
    <i name="e_fr_energy">     -0.96102884 </i>
    <i name="e_wo_entrp">     -0.96102884 </i>
    <i name="e_0_energy">     -0.96102884 </i>
   </energy>
  </scstep>
  <scstep>
   <time name="dav">    0.26    0.26</time>
   <time name="total">    2.29    2.29</time>
   <energy>
    <i name="e_fr_energy">     -1.01577102 </i>
    <i name="e_wo_entrp">     -1.01577102 </i>
    <i name="e_0_energy">     -1.01577102 </i>
   </energy>
  </scstep>
  <scstep>
   <time name="dav">    0.26    0.26</time>
   <time name="total">    2.29    2.29</time>
   <energy>
    <i name="e_fr_energy">     -1.01396135 </i>
    <i name="e_wo_entrp">     -1.01396135 </i>
    <i name="e_0_energy">     -1.01396135 </i>
   </energy>
  </scstep>
  <scstep>
   <time name="dav">    0.26    0.26</time>
   <time name="total">    2.28    2.29</time>
   <energy>
    <i name="e_fr_energy">     -1.06897156 </i>
    <i name="e_wo_entrp">     -1.06897156 </i>
    <i name="e_0_energy">     -1.06897156 </i>
   </energy>
  </scstep>
  <scstep>
   <time name="dav">    0.26    0.26</time>
   <time name="total">    2.27    2.28</time>
   <energy>
    <i name="e_fr_energy">     -1.11960170 </i>
    <i name="e_wo_entrp">     -1.11960170 </i>
    <i name="e_0_energy">     -1.11960170 </i>
   </energy>
  </scstep>
  <scstep>
   <time name="dav">    0.26    0.26</time>
   <time name="total">    2.28    2.28</time>
   <energy>
    <i name="e_fr_energy">     -1.13123947 </i>
    <i name="e_wo_entrp">     -1.13123947 </i>
    <i name="e_0_energy">     -1.13123947 </i>
   </energy>
  </scstep>
  <scstep>
   <time name="dav">    0.26    0.26</time>
   <time name="total">    2.29    2.29</time>
   <energy>
    <i name="e_fr_energy">     -1.13819095 </i>
    <i name="e_wo_entrp">     -1.13819095 </i>
    <i name="e_0_energy">     -1.13819095 </i>
   </energy>
  </scstep>
  <scstep>
   <time name="dav">    0.26    0.26</time>
   <time name="total">    2.29    2.29</time>
   <energy>
    <i name="e_fr_energy">     -1.14688991 </i>
    <i name="e_wo_entrp">     -1.14688991 </i>
    <i name="e_0_energy">     -1.14688991 </i>
   </energy>
  </scstep>
  <scstep>
   <time name="dav">    0.26    0.26</time>
   <time name="total">    2.30    2.30</time>
   <energy>
    <i name="e_fr_energy">     -1.15334120 </i>
    <i name="e_wo_entrp">     -1.15334120 </i>
    <i name="e_0_energy">     -1.15334120 </i>
   </energy>
  </scstep>
  <scstep>
   <time name="dav">    0.26    0.26</time>
   <time name="total">    2.28    2.28</time>
   <energy>
    <i name="e_fr_energy">     -1.16053561 </i>
    <i name="e_wo_entrp">     -1.16053561 </i>
    <i name="e_0_energy">     -1.16053561 </i>
   </energy>
  </scstep>
  <scstep>
   <time name="dav">    0.30    0.30</time>
   <time name="total">    2.33    2.33</time>
   <energy>
    <i name="e_fr_energy">     -1.16203674 </i>
    <i name="e_wo_entrp">     -1.16203674 </i>
    <i name="e_0_energy">     -1.16203674 </i>
   </energy>
  </scstep>
  <scstep>
   <time name="dav">    0.30    0.30</time>
   <time name="total">    2.34    2.34</time>
   <energy>
    <i name="e_fr_energy">     -1.16251685 </i>
    <i name="e_wo_entrp">     -1.16251685 </i>
    <i name="e_0_energy">     -1.16251685 </i>
   </energy>
  </scstep>
  <scstep>
   <time name="dav">    0.30    0.30</time>
   <time name="total">    2.35    2.36</time>
   <energy>
    <i name="e_fr_energy">     -1.16275994 </i>
    <i name="e_wo_entrp">     -1.16275994 </i>
    <i name="e_0_energy">     -1.16275994 </i>
   </energy>
  </scstep>
  <scstep>
   <time name="dav">    0.26    0.26</time>
   <time name="total">    2.33    2.42</time>
   <energy>
    <i name="e_fr_energy">     -1.16288899 </i>
    <i name="e_wo_entrp">     -1.16288899 </i>
    <i name="e_0_energy">     -1.16288899 </i>
   </energy>
  </scstep>
  <scstep>
   <time name="dav">    0.26    0.26</time>
   <time name="total">    2.34    2.34</time>
   <energy>
    <i name="e_fr_energy">     -1.16292107 </i>
    <i name="e_wo_entrp">     -1.16292107 </i>
    <i name="e_0_energy">     -1.16292107 </i>
   </energy>
  </scstep>
  <scstep>
   <time name="dav">    0.26    0.26</time>
   <time name="total">    2.34    2.35</time>
   <energy>
    <i name="e_fr_energy">     -1.16295479 </i>
    <i name="e_wo_entrp">     -1.16295479 </i>
    <i name="e_0_energy">     -1.16295479 </i>
   </energy>
  </scstep>
  <scstep>
   <time name="dav">    0.30    0.30</time>
   <time name="total">    2.40    2.40</time>
   <energy>
    <i name="e_fr_energy">     -1.16297066 </i>
    <i name="e_wo_entrp">     -1.16297066 </i>
    <i name="e_0_energy">     -1.16297066 </i>
   </energy>
  </scstep>
  <scstep>
   <time name="dav">    0.30    0.30</time>
   <time name="total">    2.40    2.40</time>
   <energy>
    <i name="e_fr_energy">     -1.16298926 </i>
    <i name="e_wo_entrp">     -1.16298926 </i>
    <i name="e_0_energy">     -1.16298926 </i>
   </energy>
  </scstep>
  <scstep>
   <time name="dav">    0.30    0.30</time>
   <time name="total">    2.40    2.41</time>
   <energy>
    <i name="e_fr_energy">     -1.16299105 </i>
    <i name="e_wo_entrp">     -1.16299105 </i>
    <i name="e_0_energy">     -1.16299105 </i>
   </energy>
  </scstep>
  <scstep>
   <time name="dav">    0.25    0.25</time>
   <time name="total">    2.37    2.37</time>
   <energy>
    <i name="e_fr_energy">     -1.16299334 </i>
    <i name="e_wo_entrp">     -1.16299334 </i>
    <i name="e_0_energy">     -1.16299334 </i>
   </energy>
  </scstep>
  <scstep>
   <time name="dav">    0.30    0.30</time>
   <time name="total">    2.24    2.24</time>
   <energy>
    <i name="alphaZ">      0.02953063 </i>
    <i name="ewald">     -9.48330183 </i>
    <i name="hartreedc">    -18.22494081 </i>
    <i name="XCdc">      4.36062819 </i>
    <i name="pawpsdc">     17.37546052 </i>
    <i name="pawaedc">    -16.75180656 </i>
    <i name="eentropy">     -0.00000000 </i>
    <i name="bandstr">    -18.43421786 </i>
    <i name="atom">     39.96565389 </i>
    <i name="e_fr_energy">     -1.16299383 </i>
    <i name="e_wo_entrp">     -1.16299383 </i>
    <i name="e_0_energy">     -1.16299383 </i>
   </energy>
  </scstep>
  <structure>
   <crystal>
    <varray name="basis" >
     <v>      10.00000000       0.00000000       0.00000000 </v>
     <v>       0.00000000      10.00000000       0.00000000 </v>
     <v>       0.00000000       0.00000000      11.34827000 </v>
    </varray>
    <i name="volume">   1134.82700000 </i>
    <varray name="rec_basis" >
     <v>       0.10000000       0.00000000       0.00000000 </v>
     <v>       0.00000000       0.10000000       0.00000000 </v>
     <v>       0.00000000       0.00000000       0.08811916 </v>
    </varray>
   </crystal>
   <varray name="positions" >
    <v>       0.50000000       0.50000000       0.67183236 </v>
    <v>       0.50000000       0.50000000       0.32816764 </v>
   </varray>
  </structure>
  <varray name="forces" >
   <v>      -0.00000000      -0.00000002      -0.00990115 </v>
   <v>       0.00000000       0.00000002       0.00990115 </v>
  </varray>
  <varray name="stress" >
   <v>      -0.03040355      -0.00000000      -0.00000000 </v>
   <v>       0.00000000      -0.03040355      -0.00000001 </v>
   <v>      -0.00000000      -0.00000001      -0.06819738 </v>
  </varray>
  <energy>
   <i name="e_fr_energy">     -1.16299383 </i>
   <i name="e_wo_entrp">     -1.16299383 </i>
   <i name="e_0_energy">     -1.16299383 </i>
  </energy>
  <time name="totalsc">   66.55   67.58</time>
  <eigenvalues>
   <array>
    <dimension dim="1">band</dimension>
    <dimension dim="2">kpoint</dimension>
    <dimension dim="3">spin</dimension>
    <field>eigene</field>
    <field>occ</field>
    <set>
     <set comment="spin 1">
      <set comment="kpoint 1">
       <r>   -7.4818    1.0000 </r>
       <r>   -5.4678    1.0000 </r>
       <r>   -1.8856    0.0000 </r>
       <r>   -1.8856    0.0000 </r>
       <r>   -1.8646    0.0000 </r>
       <r>   -0.2650    0.0000 </r>
      </set>
     </set>
     <set comment="spin 2">
      <set comment="kpoint 1">
       <r>   -5.4846    1.0000 </r>
       <r>   -1.9769    0.0000 </r>
       <r>   -1.8749    0.0000 </r>
       <r>   -1.8749    0.0000 </r>
       <r>   -0.4681    0.0000 </r>
       <r>    0.2405    0.0000 </r>
      </set>
     </set>
    </set>
   </array>
  </eigenvalues>
  <separator name="orbital magnetization" >
   <v name="MAGDIPOLOUT">      0.00000000      0.00000000      0.00000000</v>
  </separator>
  <dos>
   <i name="efermi">     -5.40094646 </i>
   <total>
    <array>
     <dimension dim="1">gridpoints</dimension>
     <dimension dim="2">spin</dimension>
     <field>energy</field>
     <field>total</field>
     <field>integrated</field>
     <set>
      <set comment="spin 1">
       <r>    -7.8679     0.0000     0.0000 </r>
       <r>    -7.8396     0.0000     0.0000 </r>
       <r>    -7.8113     0.0000     0.0000 </r>
       <r>    -7.7829     0.0000     0.0000 </r>
       <r>    -7.7546     0.0000     0.0000 </r>
       <r>    -7.7263     0.0000     0.0000 </r>
       <r>    -7.6980     0.0000     0.0000 </r>
       <r>    -7.6697     0.0000     0.0000 </r>
       <r>    -7.6414     0.0000     0.0000 </r>
       <r>    -7.6131     0.0000     0.0000 </r>
       <r>    -7.5847     0.0000     0.0000 </r>
       <r>    -7.5564     0.0000     0.0000 </r>
       <r>    -7.5281     0.0000     0.0000 </r>
       <r>    -7.4998     0.1912     0.0054 </r>
       <r>    -7.4715    32.5590     0.9273 </r>
       <r>    -7.4432     2.5668     1.0000 </r>
       <r>    -7.4148     0.0000     1.0000 </r>
       <r>    -7.3865     0.0000     1.0000 </r>
       <r>    -7.3582     0.0000     1.0000 </r>
       <r>    -7.3299     0.0000     1.0000 </r>
       <r>    -7.3016     0.0000     1.0000 </r>
       <r>    -7.2733     0.0000     1.0000 </r>
       <r>    -7.2450     0.0000     1.0000 </r>
       <r>    -7.2166     0.0000     1.0000 </r>
       <r>    -7.1883     0.0000     1.0000 </r>
       <r>    -7.1600     0.0000     1.0000 </r>
       <r>    -7.1317     0.0000     1.0000 </r>
       <r>    -7.1034     0.0000     1.0000 </r>
       <r>    -7.0751     0.0000     1.0000 </r>
       <r>    -7.0468     0.0000     1.0000 </r>
       <r>    -7.0184     0.0000     1.0000 </r>
       <r>    -6.9901     0.0000     1.0000 </r>
       <r>    -6.9618     0.0000     1.0000 </r>
       <r>    -6.9335     0.0000     1.0000 </r>
       <r>    -6.9052     0.0000     1.0000 </r>
       <r>    -6.8769     0.0000     1.0000 </r>
       <r>    -6.8485     0.0000     1.0000 </r>
       <r>    -6.8202     0.0000     1.0000 </r>
       <r>    -6.7919     0.0000     1.0000 </r>
       <r>    -6.7636     0.0000     1.0000 </r>
       <r>    -6.7353     0.0000     1.0000 </r>
       <r>    -6.7070     0.0000     1.0000 </r>
       <r>    -6.6787     0.0000     1.0000 </r>
       <r>    -6.6503     0.0000     1.0000 </r>
       <r>    -6.6220     0.0000     1.0000 </r>
       <r>    -6.5937     0.0000     1.0000 </r>
       <r>    -6.5654     0.0000     1.0000 </r>
       <r>    -6.5371     0.0000     1.0000 </r>
       <r>    -6.5088     0.0000     1.0000 </r>
       <r>    -6.4805     0.0000     1.0000 </r>
       <r>    -6.4521     0.0000     1.0000 </r>
       <r>    -6.4238     0.0000     1.0000 </r>
       <r>    -6.3955     0.0000     1.0000 </r>
       <r>    -6.3672     0.0000     1.0000 </r>
       <r>    -6.3389     0.0000     1.0000 </r>
       <r>    -6.3106     0.0000     1.0000 </r>
       <r>    -6.2822     0.0000     1.0000 </r>
       <r>    -6.2539     0.0000     1.0000 </r>
       <r>    -6.2256     0.0000     1.0000 </r>
       <r>    -6.1973     0.0000     1.0000 </r>
       <r>    -6.1690     0.0000     1.0000 </r>
       <r>    -6.1407     0.0000     1.0000 </r>
       <r>    -6.1124     0.0000     1.0000 </r>
       <r>    -6.0840     0.0000     1.0000 </r>
       <r>    -6.0557     0.0000     1.0000 </r>
       <r>    -6.0274     0.0000     1.0000 </r>
       <r>    -5.9991     0.0000     1.0000 </r>
       <r>    -5.9708     0.0000     1.0000 </r>
       <r>    -5.9425     0.0000     1.0000 </r>
       <r>    -5.9142     0.0000     1.0000 </r>
       <r>    -5.8858     0.0000     1.0000 </r>
       <r>    -5.8575     0.0000     1.0000 </r>
       <r>    -5.8292     0.0000     1.0000 </r>
       <r>    -5.8009     0.0000     1.0000 </r>
       <r>    -5.7726     0.0000     1.0000 </r>
       <r>    -5.7443     0.0000     1.0000 </r>
       <r>    -5.7160     0.0000     1.0000 </r>
       <r>    -5.6876     0.0000     1.0000 </r>
       <r>    -5.6593     0.0000     1.0000 </r>
       <r>    -5.6310     0.0000     1.0000 </r>
       <r>    -5.6027     0.0000     1.0000 </r>
       <r>    -5.5744     0.0000     1.0000 </r>
       <r>    -5.5461     0.0000     1.0000 </r>
       <r>    -5.5177     0.0000     1.0000 </r>
       <r>    -5.4894     0.0397     1.0011 </r>
       <r>    -5.4611    29.2288     1.8287 </r>
       <r>    -5.4328     6.0485     2.0000 </r>
       <r>    -5.4045     0.0000     2.0000 </r>
       <r>    -5.3762     0.0000     2.0000 </r>
       <r>    -5.3479     0.0000     2.0000 </r>
       <r>    -5.3195     0.0000     2.0000 </r>
       <r>    -5.2912     0.0000     2.0000 </r>
       <r>    -5.2629     0.0000     2.0000 </r>
       <r>    -5.2346     0.0000     2.0000 </r>
       <r>    -5.2063     0.0000     2.0000 </r>
       <r>    -5.1780     0.0000     2.0000 </r>
       <r>    -5.1497     0.0000     2.0000 </r>
       <r>    -5.1213     0.0000     2.0000 </r>
       <r>    -5.0930     0.0000     2.0000 </r>
       <r>    -5.0647     0.0000     2.0000 </r>
       <r>    -5.0364     0.0000     2.0000 </r>
       <r>    -5.0081     0.0000     2.0000 </r>
       <r>    -4.9798     0.0000     2.0000 </r>
       <r>    -4.9514     0.0000     2.0000 </r>
       <r>    -4.9231     0.0000     2.0000 </r>
       <r>    -4.8948     0.0000     2.0000 </r>
       <r>    -4.8665     0.0000     2.0000 </r>
       <r>    -4.8382     0.0000     2.0000 </r>
       <r>    -4.8099     0.0000     2.0000 </r>
       <r>    -4.7816     0.0000     2.0000 </r>
       <r>    -4.7532     0.0000     2.0000 </r>
       <r>    -4.7249     0.0000     2.0000 </r>
       <r>    -4.6966     0.0000     2.0000 </r>
       <r>    -4.6683     0.0000     2.0000 </r>
       <r>    -4.6400     0.0000     2.0000 </r>
       <r>    -4.6117     0.0000     2.0000 </r>
       <r>    -4.5834     0.0000     2.0000 </r>
       <r>    -4.5550     0.0000     2.0000 </r>
       <r>    -4.5267     0.0000     2.0000 </r>
       <r>    -4.4984     0.0000     2.0000 </r>
       <r>    -4.4701     0.0000     2.0000 </r>
       <r>    -4.4418     0.0000     2.0000 </r>
       <r>    -4.4135     0.0000     2.0000 </r>
       <r>    -4.3851     0.0000     2.0000 </r>
       <r>    -4.3568     0.0000     2.0000 </r>
       <r>    -4.3285     0.0000     2.0000 </r>
       <r>    -4.3002     0.0000     2.0000 </r>
       <r>    -4.2719     0.0000     2.0000 </r>
       <r>    -4.2436     0.0000     2.0000 </r>
       <r>    -4.2153     0.0000     2.0000 </r>
       <r>    -4.1869     0.0000     2.0000 </r>
       <r>    -4.1586     0.0000     2.0000 </r>
       <r>    -4.1303     0.0000     2.0000 </r>
       <r>    -4.1020     0.0000     2.0000 </r>
       <r>    -4.0737     0.0000     2.0000 </r>
       <r>    -4.0454     0.0000     2.0000 </r>
       <r>    -4.0171     0.0000     2.0000 </r>
       <r>    -3.9887     0.0000     2.0000 </r>
       <r>    -3.9604     0.0000     2.0000 </r>
       <r>    -3.9321     0.0000     2.0000 </r>
       <r>    -3.9038     0.0000     2.0000 </r>
       <r>    -3.8755     0.0000     2.0000 </r>
       <r>    -3.8472     0.0000     2.0000 </r>
       <r>    -3.8188     0.0000     2.0000 </r>
       <r>    -3.7905     0.0000     2.0000 </r>
       <r>    -3.7622     0.0000     2.0000 </r>
       <r>    -3.7339     0.0000     2.0000 </r>
       <r>    -3.7056     0.0000     2.0000 </r>
       <r>    -3.6773     0.0000     2.0000 </r>
       <r>    -3.6490     0.0000     2.0000 </r>
       <r>    -3.6206     0.0000     2.0000 </r>
       <r>    -3.5923     0.0000     2.0000 </r>
       <r>    -3.5640     0.0000     2.0000 </r>
       <r>    -3.5357     0.0000     2.0000 </r>
       <r>    -3.5074     0.0000     2.0000 </r>
       <r>    -3.4791     0.0000     2.0000 </r>
       <r>    -3.4508     0.0000     2.0000 </r>
       <r>    -3.4224     0.0000     2.0000 </r>
       <r>    -3.3941     0.0000     2.0000 </r>
       <r>    -3.3658     0.0000     2.0000 </r>
       <r>    -3.3375     0.0000     2.0000 </r>
       <r>    -3.3092     0.0000     2.0000 </r>
       <r>    -3.2809     0.0000     2.0000 </r>
       <r>    -3.2525     0.0000     2.0000 </r>
       <r>    -3.2242     0.0000     2.0000 </r>
       <r>    -3.1959     0.0000     2.0000 </r>
       <r>    -3.1676     0.0000     2.0000 </r>
       <r>    -3.1393     0.0000     2.0000 </r>
       <r>    -3.1110     0.0000     2.0000 </r>
       <r>    -3.0827     0.0000     2.0000 </r>
       <r>    -3.0543     0.0000     2.0000 </r>
       <r>    -3.0260     0.0000     2.0000 </r>
       <r>    -2.9977     0.0000     2.0000 </r>
       <r>    -2.9694     0.0000     2.0000 </r>
       <r>    -2.9411     0.0000     2.0000 </r>
       <r>    -2.9128     0.0000     2.0000 </r>
       <r>    -2.8845     0.0000     2.0000 </r>
       <r>    -2.8561     0.0000     2.0000 </r>
       <r>    -2.8278     0.0000     2.0000 </r>
       <r>    -2.7995     0.0000     2.0000 </r>
       <r>    -2.7712     0.0000     2.0000 </r>
       <r>    -2.7429     0.0000     2.0000 </r>
       <r>    -2.7146     0.0000     2.0000 </r>
       <r>    -2.6862     0.0000     2.0000 </r>
       <r>    -2.6579     0.0000     2.0000 </r>
       <r>    -2.6296     0.0000     2.0000 </r>
       <r>    -2.6013     0.0000     2.0000 </r>
       <r>    -2.5730     0.0000     2.0000 </r>
       <r>    -2.5447     0.0000     2.0000 </r>
       <r>    -2.5164     0.0000     2.0000 </r>
       <r>    -2.4880     0.0000     2.0000 </r>
       <r>    -2.4597     0.0000     2.0000 </r>
       <r>    -2.4314     0.0000     2.0000 </r>
       <r>    -2.4031     0.0000     2.0000 </r>
       <r>    -2.3748     0.0000     2.0000 </r>
       <r>    -2.3465     0.0000     2.0000 </r>
       <r>    -2.3182     0.0000     2.0000 </r>
       <r>    -2.2898     0.0000     2.0000 </r>
       <r>    -2.2615     0.0000     2.0000 </r>
       <r>    -2.2332     0.0000     2.0000 </r>
       <r>    -2.2049     0.0000     2.0000 </r>
       <r>    -2.1766     0.0000     2.0000 </r>
       <r>    -2.1483     0.0000     2.0000 </r>
       <r>    -2.1199     0.0000     2.0000 </r>
       <r>    -2.0916     0.0000     2.0000 </r>
       <r>    -2.0633     0.0000     2.0000 </r>
       <r>    -2.0350     0.0000     2.0000 </r>
       <r>    -2.0067     0.0000     2.0000 </r>
       <r>    -1.9784     0.0000     2.0000 </r>
       <r>    -1.9501     0.0000     2.0000 </r>
       <r>    -1.9217     0.0000     2.0000 </r>
       <r>    -1.8934     9.5497     2.2704 </r>
       <r>    -1.8651    77.5226     4.4654 </r>
       <r>    -1.8368    18.8772     5.0000 </r>
       <r>    -1.8085     0.0015     5.0000 </r>
       <r>    -1.7802     0.0000     5.0000 </r>
       <r>    -1.7519     0.0000     5.0000 </r>
       <r>    -1.7235     0.0000     5.0000 </r>
       <r>    -1.6952     0.0000     5.0000 </r>
       <r>    -1.6669     0.0000     5.0000 </r>
       <r>    -1.6386     0.0000     5.0000 </r>
       <r>    -1.6103     0.0000     5.0000 </r>
       <r>    -1.5820     0.0000     5.0000 </r>
       <r>    -1.5537     0.0000     5.0000 </r>
       <r>    -1.5253     0.0000     5.0000 </r>
       <r>    -1.4970     0.0000     5.0000 </r>
       <r>    -1.4687     0.0000     5.0000 </r>
       <r>    -1.4404     0.0000     5.0000 </r>
       <r>    -1.4121     0.0000     5.0000 </r>
       <r>    -1.3838     0.0000     5.0000 </r>
       <r>    -1.3554     0.0000     5.0000 </r>
       <r>    -1.3271     0.0000     5.0000 </r>
       <r>    -1.2988     0.0000     5.0000 </r>
       <r>    -1.2705     0.0000     5.0000 </r>
       <r>    -1.2422     0.0000     5.0000 </r>
       <r>    -1.2139     0.0000     5.0000 </r>
       <r>    -1.1856     0.0000     5.0000 </r>
       <r>    -1.1572     0.0000     5.0000 </r>
       <r>    -1.1289     0.0000     5.0000 </r>
       <r>    -1.1006     0.0000     5.0000 </r>
       <r>    -1.0723     0.0000     5.0000 </r>
       <r>    -1.0440     0.0000     5.0000 </r>
       <r>    -1.0157     0.0000     5.0000 </r>
       <r>    -0.9874     0.0000     5.0000 </r>
       <r>    -0.9590     0.0000     5.0000 </r>
       <r>    -0.9307     0.0000     5.0000 </r>
       <r>    -0.9024     0.0000     5.0000 </r>
       <r>    -0.8741     0.0000     5.0000 </r>
       <r>    -0.8458     0.0000     5.0000 </r>
       <r>    -0.8175     0.0000     5.0000 </r>
       <r>    -0.7891     0.0000     5.0000 </r>
       <r>    -0.7608     0.0000     5.0000 </r>
       <r>    -0.7325     0.0000     5.0000 </r>
       <r>    -0.7042     0.0000     5.0000 </r>
       <r>    -0.6759     0.0000     5.0000 </r>
       <r>    -0.6476     0.0000     5.0000 </r>
       <r>    -0.6193     0.0000     5.0000 </r>
       <r>    -0.5909     0.0000     5.0000 </r>
       <r>    -0.5626     0.0000     5.0000 </r>
       <r>    -0.5343     0.0000     5.0000 </r>
       <r>    -0.5060     0.0000     5.0000 </r>
       <r>    -0.4777     0.0000     5.0000 </r>
       <r>    -0.4494     0.0000     5.0000 </r>
       <r>    -0.4211     0.0000     5.0000 </r>
       <r>    -0.3927     0.0000     5.0000 </r>
       <r>    -0.3644     0.0000     5.0000 </r>
       <r>    -0.3361     0.0000     5.0000 </r>
       <r>    -0.3078     0.0000     5.0000 </r>
       <r>    -0.2795     0.7181     5.0203 </r>
       <r>    -0.2512    33.7107     5.9749 </r>
       <r>    -0.2228     0.8882     6.0000 </r>
       <r>    -0.1945     0.0000     6.0000 </r>
       <r>    -0.1662     0.0000     6.0000 </r>
       <r>    -0.1379     0.0000     6.0000 </r>
       <r>    -0.1096     0.0000     6.0000 </r>
       <r>    -0.0813     0.0000     6.0000 </r>
       <r>    -0.0530     0.0000     6.0000 </r>
       <r>    -0.0246     0.0000     6.0000 </r>
       <r>     0.0037     0.0000     6.0000 </r>
       <r>     0.0320     0.0000     6.0000 </r>
       <r>     0.0603     0.0000     6.0000 </r>
       <r>     0.0886     0.0000     6.0000 </r>
       <r>     0.1169     0.0000     6.0000 </r>
       <r>     0.1452     0.0000     6.0000 </r>
       <r>     0.1736     0.0000     6.0000 </r>
       <r>     0.2019     0.0000     6.0000 </r>
       <r>     0.2302     0.0000     6.0000 </r>
       <r>     0.2585     0.0000     6.0000 </r>
       <r>     0.2868     0.0000     6.0000 </r>
       <r>     0.3151     0.0000     6.0000 </r>
       <r>     0.3435     0.0000     6.0000 </r>
       <r>     0.3718     0.0000     6.0000 </r>
       <r>     0.4001     0.0000     6.0000 </r>
       <r>     0.4284     0.0000     6.0000 </r>
       <r>     0.4567     0.0000     6.0000 </r>
       <r>     0.4850     0.0000     6.0000 </r>
       <r>     0.5133     0.0000     6.0000 </r>
       <r>     0.5417     0.0000     6.0000 </r>
       <r>     0.5700     0.0000     6.0000 </r>
       <r>     0.5983     0.0000     6.0000 </r>
       <r>     0.6266     0.0000     6.0000 </r>
      </set>
      <set comment="spin 2">
       <r>    -7.8679     0.0000     0.0000 </r>
       <r>    -7.8396     0.0000     0.0000 </r>
       <r>    -7.8113     0.0000     0.0000 </r>
       <r>    -7.7829     0.0000     0.0000 </r>
       <r>    -7.7546     0.0000     0.0000 </r>
       <r>    -7.7263     0.0000     0.0000 </r>
       <r>    -7.6980     0.0000     0.0000 </r>
       <r>    -7.6697     0.0000     0.0000 </r>
       <r>    -7.6414     0.0000     0.0000 </r>
       <r>    -7.6131     0.0000     0.0000 </r>
       <r>    -7.5847     0.0000     0.0000 </r>
       <r>    -7.5564     0.0000     0.0000 </r>
       <r>    -7.5281     0.0000     0.0000 </r>
       <r>    -7.4998     0.0000     0.0000 </r>
       <r>    -7.4715     0.0000     0.0000 </r>
       <r>    -7.4432     0.0000     0.0000 </r>
       <r>    -7.4148     0.0000     0.0000 </r>
       <r>    -7.3865     0.0000     0.0000 </r>
       <r>    -7.3582     0.0000     0.0000 </r>
       <r>    -7.3299     0.0000     0.0000 </r>
       <r>    -7.3016     0.0000     0.0000 </r>
       <r>    -7.2733     0.0000     0.0000 </r>
       <r>    -7.2450     0.0000     0.0000 </r>
       <r>    -7.2166     0.0000     0.0000 </r>
       <r>    -7.1883     0.0000     0.0000 </r>
       <r>    -7.1600     0.0000     0.0000 </r>
       <r>    -7.1317     0.0000     0.0000 </r>
       <r>    -7.1034     0.0000     0.0000 </r>
       <r>    -7.0751     0.0000     0.0000 </r>
       <r>    -7.0468     0.0000     0.0000 </r>
       <r>    -7.0184     0.0000     0.0000 </r>
       <r>    -6.9901     0.0000     0.0000 </r>
       <r>    -6.9618     0.0000     0.0000 </r>
       <r>    -6.9335     0.0000     0.0000 </r>
       <r>    -6.9052     0.0000     0.0000 </r>
       <r>    -6.8769     0.0000     0.0000 </r>
       <r>    -6.8485     0.0000     0.0000 </r>
       <r>    -6.8202     0.0000     0.0000 </r>
       <r>    -6.7919     0.0000     0.0000 </r>
       <r>    -6.7636     0.0000     0.0000 </r>
       <r>    -6.7353     0.0000     0.0000 </r>
       <r>    -6.7070     0.0000     0.0000 </r>
       <r>    -6.6787     0.0000     0.0000 </r>
       <r>    -6.6503     0.0000     0.0000 </r>
       <r>    -6.6220     0.0000     0.0000 </r>
       <r>    -6.5937     0.0000     0.0000 </r>
       <r>    -6.5654     0.0000     0.0000 </r>
       <r>    -6.5371     0.0000     0.0000 </r>
       <r>    -6.5088     0.0000     0.0000 </r>
       <r>    -6.4805     0.0000     0.0000 </r>
       <r>    -6.4521     0.0000     0.0000 </r>
       <r>    -6.4238     0.0000     0.0000 </r>
       <r>    -6.3955     0.0000     0.0000 </r>
       <r>    -6.3672     0.0000     0.0000 </r>
       <r>    -6.3389     0.0000     0.0000 </r>
       <r>    -6.3106     0.0000     0.0000 </r>
       <r>    -6.2822     0.0000     0.0000 </r>
       <r>    -6.2539     0.0000     0.0000 </r>
       <r>    -6.2256     0.0000     0.0000 </r>
       <r>    -6.1973     0.0000     0.0000 </r>
       <r>    -6.1690     0.0000     0.0000 </r>
       <r>    -6.1407     0.0000     0.0000 </r>
       <r>    -6.1124     0.0000     0.0000 </r>
       <r>    -6.0840     0.0000     0.0000 </r>
       <r>    -6.0557     0.0000     0.0000 </r>
       <r>    -6.0274     0.0000     0.0000 </r>
       <r>    -5.9991     0.0000     0.0000 </r>
       <r>    -5.9708     0.0000     0.0000 </r>
       <r>    -5.9425     0.0000     0.0000 </r>
       <r>    -5.9142     0.0000     0.0000 </r>
       <r>    -5.8858     0.0000     0.0000 </r>
       <r>    -5.8575     0.0000     0.0000 </r>
       <r>    -5.8292     0.0000     0.0000 </r>
       <r>    -5.8009     0.0000     0.0000 </r>
       <r>    -5.7726     0.0000     0.0000 </r>
       <r>    -5.7443     0.0000     0.0000 </r>
       <r>    -5.7160     0.0000     0.0000 </r>
       <r>    -5.6876     0.0000     0.0000 </r>
       <r>    -5.6593     0.0000     0.0000 </r>
       <r>    -5.6310     0.0000     0.0000 </r>
       <r>    -5.6027     0.0000     0.0000 </r>
       <r>    -5.5744     0.0000     0.0000 </r>
       <r>    -5.5461     0.0000     0.0000 </r>
       <r>    -5.5177     0.0000     0.0000 </r>
       <r>    -5.4894     8.7569     0.2480 </r>
       <r>    -5.4611    26.5444     0.9996 </r>
       <r>    -5.4328     0.0157     1.0000 </r>
       <r>    -5.4045     0.0000     1.0000 </r>
       <r>    -5.3762     0.0000     1.0000 </r>
       <r>    -5.3479     0.0000     1.0000 </r>
       <r>    -5.3195     0.0000     1.0000 </r>
       <r>    -5.2912     0.0000     1.0000 </r>
       <r>    -5.2629     0.0000     1.0000 </r>
       <r>    -5.2346     0.0000     1.0000 </r>
       <r>    -5.2063     0.0000     1.0000 </r>
       <r>    -5.1780     0.0000     1.0000 </r>
       <r>    -5.1497     0.0000     1.0000 </r>
       <r>    -5.1213     0.0000     1.0000 </r>
       <r>    -5.0930     0.0000     1.0000 </r>
       <r>    -5.0647     0.0000     1.0000 </r>
       <r>    -5.0364     0.0000     1.0000 </r>
       <r>    -5.0081     0.0000     1.0000 </r>
       <r>    -4.9798     0.0000     1.0000 </r>
       <r>    -4.9514     0.0000     1.0000 </r>
       <r>    -4.9231     0.0000     1.0000 </r>
       <r>    -4.8948     0.0000     1.0000 </r>
       <r>    -4.8665     0.0000     1.0000 </r>
       <r>    -4.8382     0.0000     1.0000 </r>
       <r>    -4.8099     0.0000     1.0000 </r>
       <r>    -4.7816     0.0000     1.0000 </r>
       <r>    -4.7532     0.0000     1.0000 </r>
       <r>    -4.7249     0.0000     1.0000 </r>
       <r>    -4.6966     0.0000     1.0000 </r>
       <r>    -4.6683     0.0000     1.0000 </r>
       <r>    -4.6400     0.0000     1.0000 </r>
       <r>    -4.6117     0.0000     1.0000 </r>
       <r>    -4.5834     0.0000     1.0000 </r>
       <r>    -4.5550     0.0000     1.0000 </r>
       <r>    -4.5267     0.0000     1.0000 </r>
       <r>    -4.4984     0.0000     1.0000 </r>
       <r>    -4.4701     0.0000     1.0000 </r>
       <r>    -4.4418     0.0000     1.0000 </r>
       <r>    -4.4135     0.0000     1.0000 </r>
       <r>    -4.3851     0.0000     1.0000 </r>
       <r>    -4.3568     0.0000     1.0000 </r>
       <r>    -4.3285     0.0000     1.0000 </r>
       <r>    -4.3002     0.0000     1.0000 </r>
       <r>    -4.2719     0.0000     1.0000 </r>
       <r>    -4.2436     0.0000     1.0000 </r>
       <r>    -4.2153     0.0000     1.0000 </r>
       <r>    -4.1869     0.0000     1.0000 </r>
       <r>    -4.1586     0.0000     1.0000 </r>
       <r>    -4.1303     0.0000     1.0000 </r>
       <r>    -4.1020     0.0000     1.0000 </r>
       <r>    -4.0737     0.0000     1.0000 </r>
       <r>    -4.0454     0.0000     1.0000 </r>
       <r>    -4.0171     0.0000     1.0000 </r>
       <r>    -3.9887     0.0000     1.0000 </r>
       <r>    -3.9604     0.0000     1.0000 </r>
       <r>    -3.9321     0.0000     1.0000 </r>
       <r>    -3.9038     0.0000     1.0000 </r>
       <r>    -3.8755     0.0000     1.0000 </r>
       <r>    -3.8472     0.0000     1.0000 </r>
       <r>    -3.8188     0.0000     1.0000 </r>
       <r>    -3.7905     0.0000     1.0000 </r>
       <r>    -3.7622     0.0000     1.0000 </r>
       <r>    -3.7339     0.0000     1.0000 </r>
       <r>    -3.7056     0.0000     1.0000 </r>
       <r>    -3.6773     0.0000     1.0000 </r>
       <r>    -3.6490     0.0000     1.0000 </r>
       <r>    -3.6206     0.0000     1.0000 </r>
       <r>    -3.5923     0.0000     1.0000 </r>
       <r>    -3.5640     0.0000     1.0000 </r>
       <r>    -3.5357     0.0000     1.0000 </r>
       <r>    -3.5074     0.0000     1.0000 </r>
       <r>    -3.4791     0.0000     1.0000 </r>
       <r>    -3.4508     0.0000     1.0000 </r>
       <r>    -3.4224     0.0000     1.0000 </r>
       <r>    -3.3941     0.0000     1.0000 </r>
       <r>    -3.3658     0.0000     1.0000 </r>
       <r>    -3.3375     0.0000     1.0000 </r>
       <r>    -3.3092     0.0000     1.0000 </r>
       <r>    -3.2809     0.0000     1.0000 </r>
       <r>    -3.2525     0.0000     1.0000 </r>
       <r>    -3.2242     0.0000     1.0000 </r>
       <r>    -3.1959     0.0000     1.0000 </r>
       <r>    -3.1676     0.0000     1.0000 </r>
       <r>    -3.1393     0.0000     1.0000 </r>
       <r>    -3.1110     0.0000     1.0000 </r>
       <r>    -3.0827     0.0000     1.0000 </r>
       <r>    -3.0543     0.0000     1.0000 </r>
       <r>    -3.0260     0.0000     1.0000 </r>
       <r>    -2.9977     0.0000     1.0000 </r>
       <r>    -2.9694     0.0000     1.0000 </r>
       <r>    -2.9411     0.0000     1.0000 </r>
       <r>    -2.9128     0.0000     1.0000 </r>
       <r>    -2.8845     0.0000     1.0000 </r>
       <r>    -2.8561     0.0000     1.0000 </r>
       <r>    -2.8278     0.0000     1.0000 </r>
       <r>    -2.7995     0.0000     1.0000 </r>
       <r>    -2.7712     0.0000     1.0000 </r>
       <r>    -2.7429     0.0000     1.0000 </r>
       <r>    -2.7146     0.0000     1.0000 </r>
       <r>    -2.6862     0.0000     1.0000 </r>
       <r>    -2.6579     0.0000     1.0000 </r>
       <r>    -2.6296     0.0000     1.0000 </r>
       <r>    -2.6013     0.0000     1.0000 </r>
       <r>    -2.5730     0.0000     1.0000 </r>
       <r>    -2.5447     0.0000     1.0000 </r>
       <r>    -2.5164     0.0000     1.0000 </r>
       <r>    -2.4880     0.0000     1.0000 </r>
       <r>    -2.4597     0.0000     1.0000 </r>
       <r>    -2.4314     0.0000     1.0000 </r>
       <r>    -2.4031     0.0000     1.0000 </r>
       <r>    -2.3748     0.0000     1.0000 </r>
       <r>    -2.3465     0.0000     1.0000 </r>
       <r>    -2.3182     0.0000     1.0000 </r>
       <r>    -2.2898     0.0000     1.0000 </r>
       <r>    -2.2615     0.0000     1.0000 </r>
       <r>    -2.2332     0.0000     1.0000 </r>
       <r>    -2.2049     0.0000     1.0000 </r>
       <r>    -2.1766     0.0000     1.0000 </r>
       <r>    -2.1483     0.0000     1.0000 </r>
       <r>    -2.1199     0.0000     1.0000 </r>
       <r>    -2.0916     0.0000     1.0000 </r>
       <r>    -2.0633     0.0000     1.0000 </r>
       <r>    -2.0350     0.0000     1.0000 </r>
       <r>    -2.0067     0.0004     1.0000 </r>
       <r>    -1.9784    14.6449     1.4147 </r>
       <r>    -1.9501    20.6690     1.9999 </r>
       <r>    -1.9217     0.0027     2.0000 </r>
       <r>    -1.8934     0.3046     2.0086 </r>
       <r>    -1.8651    64.3858     3.8317 </r>
       <r>    -1.8368     5.9436     4.0000 </r>
       <r>    -1.8085     0.0000     4.0000 </r>
       <r>    -1.7802     0.0000     4.0000 </r>
       <r>    -1.7519     0.0000     4.0000 </r>
       <r>    -1.7235     0.0000     4.0000 </r>
       <r>    -1.6952     0.0000     4.0000 </r>
       <r>    -1.6669     0.0000     4.0000 </r>
       <r>    -1.6386     0.0000     4.0000 </r>
       <r>    -1.6103     0.0000     4.0000 </r>
       <r>    -1.5820     0.0000     4.0000 </r>
       <r>    -1.5537     0.0000     4.0000 </r>
       <r>    -1.5253     0.0000     4.0000 </r>
       <r>    -1.4970     0.0000     4.0000 </r>
       <r>    -1.4687     0.0000     4.0000 </r>
       <r>    -1.4404     0.0000     4.0000 </r>
       <r>    -1.4121     0.0000     4.0000 </r>
       <r>    -1.3838     0.0000     4.0000 </r>
       <r>    -1.3554     0.0000     4.0000 </r>
       <r>    -1.3271     0.0000     4.0000 </r>
       <r>    -1.2988     0.0000     4.0000 </r>
       <r>    -1.2705     0.0000     4.0000 </r>
       <r>    -1.2422     0.0000     4.0000 </r>
       <r>    -1.2139     0.0000     4.0000 </r>
       <r>    -1.1856     0.0000     4.0000 </r>
       <r>    -1.1572     0.0000     4.0000 </r>
       <r>    -1.1289     0.0000     4.0000 </r>
       <r>    -1.1006     0.0000     4.0000 </r>
       <r>    -1.0723     0.0000     4.0000 </r>
       <r>    -1.0440     0.0000     4.0000 </r>
       <r>    -1.0157     0.0000     4.0000 </r>
       <r>    -0.9874     0.0000     4.0000 </r>
       <r>    -0.9590     0.0000     4.0000 </r>
       <r>    -0.9307     0.0000     4.0000 </r>
       <r>    -0.9024     0.0000     4.0000 </r>
       <r>    -0.8741     0.0000     4.0000 </r>
       <r>    -0.8458     0.0000     4.0000 </r>
       <r>    -0.8175     0.0000     4.0000 </r>
       <r>    -0.7891     0.0000     4.0000 </r>
       <r>    -0.7608     0.0000     4.0000 </r>
       <r>    -0.7325     0.0000     4.0000 </r>
       <r>    -0.7042     0.0000     4.0000 </r>
       <r>    -0.6759     0.0000     4.0000 </r>
       <r>    -0.6476     0.0000     4.0000 </r>
       <r>    -0.6193     0.0000     4.0000 </r>
       <r>    -0.5909     0.0000     4.0000 </r>
       <r>    -0.5626     0.0000     4.0000 </r>
       <r>    -0.5343     0.0000     4.0000 </r>
       <r>    -0.5060     0.0000     4.0000 </r>
       <r>    -0.4777     3.1273     4.0886 </r>
       <r>    -0.4494    32.0495     4.9960 </r>
       <r>    -0.4211     0.1402     5.0000 </r>
       <r>    -0.3927     0.0000     5.0000 </r>
       <r>    -0.3644     0.0000     5.0000 </r>
       <r>    -0.3361     0.0000     5.0000 </r>
       <r>    -0.3078     0.0000     5.0000 </r>
       <r>    -0.2795     0.0000     5.0000 </r>
       <r>    -0.2512     0.0000     5.0000 </r>
       <r>    -0.2228     0.0000     5.0000 </r>
       <r>    -0.1945     0.0000     5.0000 </r>
       <r>    -0.1662     0.0000     5.0000 </r>
       <r>    -0.1379     0.0000     5.0000 </r>
       <r>    -0.1096     0.0000     5.0000 </r>
       <r>    -0.0813     0.0000     5.0000 </r>
       <r>    -0.0530     0.0000     5.0000 </r>
       <r>    -0.0246     0.0000     5.0000 </r>
       <r>     0.0037     0.0000     5.0000 </r>
       <r>     0.0320     0.0000     5.0000 </r>
       <r>     0.0603     0.0000     5.0000 </r>
       <r>     0.0886     0.0000     5.0000 </r>
       <r>     0.1169     0.0000     5.0000 </r>
       <r>     0.1452     0.0000     5.0000 </r>
       <r>     0.1736     0.0000     5.0000 </r>
       <r>     0.2019     0.0000     5.0000 </r>
       <r>     0.2302     2.5668     5.0727 </r>
       <r>     0.2585    32.5590     5.9946 </r>
       <r>     0.2868     0.1912     6.0000 </r>
       <r>     0.3151     0.0000     6.0000 </r>
       <r>     0.3435     0.0000     6.0000 </r>
       <r>     0.3718     0.0000     6.0000 </r>
       <r>     0.4001     0.0000     6.0000 </r>
       <r>     0.4284     0.0000     6.0000 </r>
       <r>     0.4567     0.0000     6.0000 </r>
       <r>     0.4850     0.0000     6.0000 </r>
       <r>     0.5133     0.0000     6.0000 </r>
       <r>     0.5417     0.0000     6.0000 </r>
       <r>     0.5700     0.0000     6.0000 </r>
       <r>     0.5983     0.0000     6.0000 </r>
       <r>     0.6266     0.0000     6.0000 </r>
      </set>
     </set>
    </array>
   </total>
   <partial>
    <array>
     <dimension dim="1">gridpoints</dimension>
     <dimension dim="2">spin</dimension>
     <dimension dim="3">ion</dimension>
     <field>energy</field>
     <field>    s</field>
     <field>   py</field>
     <field>   pz</field>
     <field>   px</field>
     <field>  dxy</field>
     <field>  dyz</field>
     <field>  dz2</field>
     <field>  dxz</field>
     <field>x2-y2</field>
     <set>
      <set comment="ion 1">
       <set comment="spin 1">
        <r>    -7.8679     0.0000     0.0000     0.0000     0.0000     0.0000     0.0000     0.0000     0.0000     0.0000 </r>
        <r>    -7.8396     0.0000     0.0000     0.0000     0.0000     0.0000     0.0000     0.0000     0.0000     0.0000 </r>
        <r>    -7.8113     0.0000     0.0000     0.0000     0.0000     0.0000     0.0000     0.0000     0.0000     0.0000 </r>
        <r>    -7.7829     0.0000     0.0000     0.0000     0.0000     0.0000     0.0000     0.0000     0.0000     0.0000 </r>
        <r>    -7.7546     0.0000     0.0000     0.0000     0.0000     0.0000     0.0000     0.0000     0.0000     0.0000 </r>
        <r>    -7.7263     0.0000     0.0000     0.0000     0.0000     0.0000     0.0000     0.0000     0.0000     0.0000 </r>
        <r>    -7.6980     0.0000     0.0000     0.0000     0.0000     0.0000     0.0000     0.0000     0.0000     0.0000 </r>
        <r>    -7.6697     0.0000     0.0000     0.0000     0.0000     0.0000     0.0000     0.0000     0.0000     0.0000 </r>
        <r>    -7.6414     0.0000     0.0000     0.0000     0.0000     0.0000     0.0000     0.0000     0.0000     0.0000 </r>
        <r>    -7.6131     0.0000     0.0000     0.0000     0.0000     0.0000     0.0000     0.0000     0.0000     0.0000 </r>
        <r>    -7.5847     0.0000     0.0000     0.0000     0.0000     0.0000     0.0000     0.0000     0.0000     0.0000 </r>
        <r>    -7.5564     0.0000     0.0000     0.0000     0.0000     0.0000     0.0000     0.0000     0.0000     0.0000 </r>
        <r>    -7.5281     0.0000     0.0000     0.0000     0.0000     0.0000     0.0000     0.0000     0.0000     0.0000 </r>
        <r>    -7.4998     0.0003     0.0000     0.0000     0.0000     0.0000     0.0000     0.0000     0.0000     0.0000 </r>
        <r>    -7.4715     0.0437     0.0000     0.0059     0.0000     0.0000     0.0000     0.0000     0.0000     0.0000 </r>
        <r>    -7.4432     0.0034     0.0000     0.0005     0.0000     0.0000     0.0000     0.0000     0.0000     0.0000 </r>
        <r>    -7.4148     0.0000     0.0000     0.0000     0.0000     0.0000     0.0000     0.0000     0.0000     0.0000 </r>
        <r>    -7.3865     0.0000     0.0000     0.0000     0.0000     0.0000     0.0000     0.0000     0.0000     0.0000 </r>
        <r>    -7.3582     0.0000     0.0000     0.0000     0.0000     0.0000     0.0000     0.0000     0.0000     0.0000 </r>
        <r>    -7.3299     0.0000     0.0000     0.0000     0.0000     0.0000     0.0000     0.0000     0.0000     0.0000 </r>
        <r>    -7.3016     0.0000     0.0000     0.0000     0.0000     0.0000     0.0000     0.0000     0.0000     0.0000 </r>
        <r>    -7.2733     0.0000     0.0000     0.0000     0.0000     0.0000     0.0000     0.0000     0.0000     0.0000 </r>
        <r>    -7.2450     0.0000     0.0000     0.0000     0.0000     0.0000     0.0000     0.0000     0.0000     0.0000 </r>
        <r>    -7.2166     0.0000     0.0000     0.0000     0.0000     0.0000     0.0000     0.0000     0.0000     0.0000 </r>
        <r>    -7.1883     0.0000     0.0000     0.0000     0.0000     0.0000     0.0000     0.0000     0.0000     0.0000 </r>
        <r>    -7.1600     0.0000     0.0000     0.0000     0.0000     0.0000     0.0000     0.0000     0.0000     0.0000 </r>
        <r>    -7.1317     0.0000     0.0000     0.0000     0.0000     0.0000     0.0000     0.0000     0.0000     0.0000 </r>
        <r>    -7.1034     0.0000     0.0000     0.0000     0.0000     0.0000     0.0000     0.0000     0.0000     0.0000 </r>
        <r>    -7.0751     0.0000     0.0000     0.0000     0.0000     0.0000     0.0000     0.0000     0.0000     0.0000 </r>
        <r>    -7.0468     0.0000     0.0000     0.0000     0.0000     0.0000     0.0000     0.0000     0.0000     0.0000 </r>
        <r>    -7.0184     0.0000     0.0000     0.0000     0.0000     0.0000     0.0000     0.0000     0.0000     0.0000 </r>
        <r>    -6.9901     0.0000     0.0000     0.0000     0.0000     0.0000     0.0000     0.0000     0.0000     0.0000 </r>
        <r>    -6.9618     0.0000     0.0000     0.0000     0.0000     0.0000     0.0000     0.0000     0.0000     0.0000 </r>
        <r>    -6.9335     0.0000     0.0000     0.0000     0.0000     0.0000     0.0000     0.0000     0.0000     0.0000 </r>
        <r>    -6.9052     0.0000     0.0000     0.0000     0.0000     0.0000     0.0000     0.0000     0.0000     0.0000 </r>
        <r>    -6.8769     0.0000     0.0000     0.0000     0.0000     0.0000     0.0000     0.0000     0.0000     0.0000 </r>
        <r>    -6.8485     0.0000     0.0000     0.0000     0.0000     0.0000     0.0000     0.0000     0.0000     0.0000 </r>
        <r>    -6.8202     0.0000     0.0000     0.0000     0.0000     0.0000     0.0000     0.0000     0.0000     0.0000 </r>
        <r>    -6.7919     0.0000     0.0000     0.0000     0.0000     0.0000     0.0000     0.0000     0.0000     0.0000 </r>
        <r>    -6.7636     0.0000     0.0000     0.0000     0.0000     0.0000     0.0000     0.0000     0.0000     0.0000 </r>
        <r>    -6.7353     0.0000     0.0000     0.0000     0.0000     0.0000     0.0000     0.0000     0.0000     0.0000 </r>
        <r>    -6.7070     0.0000     0.0000     0.0000     0.0000     0.0000     0.0000     0.0000     0.0000     0.0000 </r>
        <r>    -6.6787     0.0000     0.0000     0.0000     0.0000     0.0000     0.0000     0.0000     0.0000     0.0000 </r>
        <r>    -6.6503     0.0000     0.0000     0.0000     0.0000     0.0000     0.0000     0.0000     0.0000     0.0000 </r>
        <r>    -6.6220     0.0000     0.0000     0.0000     0.0000     0.0000     0.0000     0.0000     0.0000     0.0000 </r>
        <r>    -6.5937     0.0000     0.0000     0.0000     0.0000     0.0000     0.0000     0.0000     0.0000     0.0000 </r>
        <r>    -6.5654     0.0000     0.0000     0.0000     0.0000     0.0000     0.0000     0.0000     0.0000     0.0000 </r>
        <r>    -6.5371     0.0000     0.0000     0.0000     0.0000     0.0000     0.0000     0.0000     0.0000     0.0000 </r>
        <r>    -6.5088     0.0000     0.0000     0.0000     0.0000     0.0000     0.0000     0.0000     0.0000     0.0000 </r>
        <r>    -6.4805     0.0000     0.0000     0.0000     0.0000     0.0000     0.0000     0.0000     0.0000     0.0000 </r>
        <r>    -6.4521     0.0000     0.0000     0.0000     0.0000     0.0000     0.0000     0.0000     0.0000     0.0000 </r>
        <r>    -6.4238     0.0000     0.0000     0.0000     0.0000     0.0000     0.0000     0.0000     0.0000     0.0000 </r>
        <r>    -6.3955     0.0000     0.0000     0.0000     0.0000     0.0000     0.0000     0.0000     0.0000     0.0000 </r>
        <r>    -6.3672     0.0000     0.0000     0.0000     0.0000     0.0000     0.0000     0.0000     0.0000     0.0000 </r>
        <r>    -6.3389     0.0000     0.0000     0.0000     0.0000     0.0000     0.0000     0.0000     0.0000     0.0000 </r>
        <r>    -6.3106     0.0000     0.0000     0.0000     0.0000     0.0000     0.0000     0.0000     0.0000     0.0000 </r>
        <r>    -6.2822     0.0000     0.0000     0.0000     0.0000     0.0000     0.0000     0.0000     0.0000     0.0000 </r>
        <r>    -6.2539     0.0000     0.0000     0.0000     0.0000     0.0000     0.0000     0.0000     0.0000     0.0000 </r>
        <r>    -6.2256     0.0000     0.0000     0.0000     0.0000     0.0000     0.0000     0.0000     0.0000     0.0000 </r>
        <r>    -6.1973     0.0000     0.0000     0.0000     0.0000     0.0000     0.0000     0.0000     0.0000     0.0000 </r>
        <r>    -6.1690     0.0000     0.0000     0.0000     0.0000     0.0000     0.0000     0.0000     0.0000     0.0000 </r>
        <r>    -6.1407     0.0000     0.0000     0.0000     0.0000     0.0000     0.0000     0.0000     0.0000     0.0000 </r>
        <r>    -6.1124     0.0000     0.0000     0.0000     0.0000     0.0000     0.0000     0.0000     0.0000     0.0000 </r>
        <r>    -6.0840     0.0000     0.0000     0.0000     0.0000     0.0000     0.0000     0.0000     0.0000     0.0000 </r>
        <r>    -6.0557     0.0000     0.0000     0.0000     0.0000     0.0000     0.0000     0.0000     0.0000     0.0000 </r>
        <r>    -6.0274     0.0000     0.0000     0.0000     0.0000     0.0000     0.0000     0.0000     0.0000     0.0000 </r>
        <r>    -5.9991     0.0000     0.0000     0.0000     0.0000     0.0000     0.0000     0.0000     0.0000     0.0000 </r>
        <r>    -5.9708     0.0000     0.0000     0.0000     0.0000     0.0000     0.0000     0.0000     0.0000     0.0000 </r>
        <r>    -5.9425     0.0000     0.0000     0.0000     0.0000     0.0000     0.0000     0.0000     0.0000     0.0000 </r>
        <r>    -5.9142     0.0000     0.0000     0.0000     0.0000     0.0000     0.0000     0.0000     0.0000     0.0000 </r>
        <r>    -5.8858     0.0000     0.0000     0.0000     0.0000     0.0000     0.0000     0.0000     0.0000     0.0000 </r>
        <r>    -5.8575     0.0000     0.0000     0.0000     0.0000     0.0000     0.0000     0.0000     0.0000     0.0000 </r>
        <r>    -5.8292     0.0000     0.0000     0.0000     0.0000     0.0000     0.0000     0.0000     0.0000     0.0000 </r>
        <r>    -5.8009     0.0000     0.0000     0.0000     0.0000     0.0000     0.0000     0.0000     0.0000     0.0000 </r>
        <r>    -5.7726     0.0000     0.0000     0.0000     0.0000     0.0000     0.0000     0.0000     0.0000     0.0000 </r>
        <r>    -5.7443     0.0000     0.0000     0.0000     0.0000     0.0000     0.0000     0.0000     0.0000     0.0000 </r>
        <r>    -5.7160     0.0000     0.0000     0.0000     0.0000     0.0000     0.0000     0.0000     0.0000     0.0000 </r>
        <r>    -5.6876     0.0000     0.0000     0.0000     0.0000     0.0000     0.0000     0.0000     0.0000     0.0000 </r>
        <r>    -5.6593     0.0000     0.0000     0.0000     0.0000     0.0000     0.0000     0.0000     0.0000     0.0000 </r>
        <r>    -5.6310     0.0000     0.0000     0.0000     0.0000     0.0000     0.0000     0.0000     0.0000     0.0000 </r>
        <r>    -5.6027     0.0000     0.0000     0.0000     0.0000     0.0000     0.0000     0.0000     0.0000     0.0000 </r>
        <r>    -5.5744     0.0000     0.0000     0.0000     0.0000     0.0000     0.0000     0.0000     0.0000     0.0000 </r>
        <r>    -5.5461     0.0000     0.0000     0.0000     0.0000     0.0000     0.0000     0.0000     0.0000     0.0000 </r>
        <r>    -5.5177     0.0000     0.0000     0.0000     0.0000     0.0000     0.0000     0.0000     0.0000     0.0000 </r>
        <r>    -5.4894     0.0133     0.0000     0.0000     0.0000     0.0000     0.0000     0.0000     0.0000     0.0000 </r>
        <r>    -5.4611     9.7852     0.0000     0.0030     0.0000     0.0000     0.0000     0.0000     0.0000     0.0000 </r>
        <r>    -5.4328     2.0249     0.0000     0.0006     0.0000     0.0000     0.0000     0.0000     0.0000     0.0000 </r>
        <r>    -5.4045     0.0000     0.0000     0.0000     0.0000     0.0000     0.0000     0.0000     0.0000     0.0000 </r>
        <r>    -5.3762     0.0000     0.0000     0.0000     0.0000     0.0000     0.0000     0.0000     0.0000     0.0000 </r>
        <r>    -5.3479     0.0000     0.0000     0.0000     0.0000     0.0000     0.0000     0.0000     0.0000     0.0000 </r>
        <r>    -5.3195     0.0000     0.0000     0.0000     0.0000     0.0000     0.0000     0.0000     0.0000     0.0000 </r>
        <r>    -5.2912     0.0000     0.0000     0.0000     0.0000     0.0000     0.0000     0.0000     0.0000     0.0000 </r>
        <r>    -5.2629     0.0000     0.0000     0.0000     0.0000     0.0000     0.0000     0.0000     0.0000     0.0000 </r>
        <r>    -5.2346     0.0000     0.0000     0.0000     0.0000     0.0000     0.0000     0.0000     0.0000     0.0000 </r>
        <r>    -5.2063     0.0000     0.0000     0.0000     0.0000     0.0000     0.0000     0.0000     0.0000     0.0000 </r>
        <r>    -5.1780     0.0000     0.0000     0.0000     0.0000     0.0000     0.0000     0.0000     0.0000     0.0000 </r>
        <r>    -5.1497     0.0000     0.0000     0.0000     0.0000     0.0000     0.0000     0.0000     0.0000     0.0000 </r>
        <r>    -5.1213     0.0000     0.0000     0.0000     0.0000     0.0000     0.0000     0.0000     0.0000     0.0000 </r>
        <r>    -5.0930     0.0000     0.0000     0.0000     0.0000     0.0000     0.0000     0.0000     0.0000     0.0000 </r>
        <r>    -5.0647     0.0000     0.0000     0.0000     0.0000     0.0000     0.0000     0.0000     0.0000     0.0000 </r>
        <r>    -5.0364     0.0000     0.0000     0.0000     0.0000     0.0000     0.0000     0.0000     0.0000     0.0000 </r>
        <r>    -5.0081     0.0000     0.0000     0.0000     0.0000     0.0000     0.0000     0.0000     0.0000     0.0000 </r>
        <r>    -4.9798     0.0000     0.0000     0.0000     0.0000     0.0000     0.0000     0.0000     0.0000     0.0000 </r>
        <r>    -4.9514     0.0000     0.0000     0.0000     0.0000     0.0000     0.0000     0.0000     0.0000     0.0000 </r>
        <r>    -4.9231     0.0000     0.0000     0.0000     0.0000     0.0000     0.0000     0.0000     0.0000     0.0000 </r>
        <r>    -4.8948     0.0000     0.0000     0.0000     0.0000     0.0000     0.0000     0.0000     0.0000     0.0000 </r>
        <r>    -4.8665     0.0000     0.0000     0.0000     0.0000     0.0000     0.0000     0.0000     0.0000     0.0000 </r>
        <r>    -4.8382     0.0000     0.0000     0.0000     0.0000     0.0000     0.0000     0.0000     0.0000     0.0000 </r>
        <r>    -4.8099     0.0000     0.0000     0.0000     0.0000     0.0000     0.0000     0.0000     0.0000     0.0000 </r>
        <r>    -4.7816     0.0000     0.0000     0.0000     0.0000     0.0000     0.0000     0.0000     0.0000     0.0000 </r>
        <r>    -4.7532     0.0000     0.0000     0.0000     0.0000     0.0000     0.0000     0.0000     0.0000     0.0000 </r>
        <r>    -4.7249     0.0000     0.0000     0.0000     0.0000     0.0000     0.0000     0.0000     0.0000     0.0000 </r>
        <r>    -4.6966     0.0000     0.0000     0.0000     0.0000     0.0000     0.0000     0.0000     0.0000     0.0000 </r>
        <r>    -4.6683     0.0000     0.0000     0.0000     0.0000     0.0000     0.0000     0.0000     0.0000     0.0000 </r>
        <r>    -4.6400     0.0000     0.0000     0.0000     0.0000     0.0000     0.0000     0.0000     0.0000     0.0000 </r>
        <r>    -4.6117     0.0000     0.0000     0.0000     0.0000     0.0000     0.0000     0.0000     0.0000     0.0000 </r>
        <r>    -4.5834     0.0000     0.0000     0.0000     0.0000     0.0000     0.0000     0.0000     0.0000     0.0000 </r>
        <r>    -4.5550     0.0000     0.0000     0.0000     0.0000     0.0000     0.0000     0.0000     0.0000     0.0000 </r>
        <r>    -4.5267     0.0000     0.0000     0.0000     0.0000     0.0000     0.0000     0.0000     0.0000     0.0000 </r>
        <r>    -4.4984     0.0000     0.0000     0.0000     0.0000     0.0000     0.0000     0.0000     0.0000     0.0000 </r>
        <r>    -4.4701     0.0000     0.0000     0.0000     0.0000     0.0000     0.0000     0.0000     0.0000     0.0000 </r>
        <r>    -4.4418     0.0000     0.0000     0.0000     0.0000     0.0000     0.0000     0.0000     0.0000     0.0000 </r>
        <r>    -4.4135     0.0000     0.0000     0.0000     0.0000     0.0000     0.0000     0.0000     0.0000     0.0000 </r>
        <r>    -4.3851     0.0000     0.0000     0.0000     0.0000     0.0000     0.0000     0.0000     0.0000     0.0000 </r>
        <r>    -4.3568     0.0000     0.0000     0.0000     0.0000     0.0000     0.0000     0.0000     0.0000     0.0000 </r>
        <r>    -4.3285     0.0000     0.0000     0.0000     0.0000     0.0000     0.0000     0.0000     0.0000     0.0000 </r>
        <r>    -4.3002     0.0000     0.0000     0.0000     0.0000     0.0000     0.0000     0.0000     0.0000     0.0000 </r>
        <r>    -4.2719     0.0000     0.0000     0.0000     0.0000     0.0000     0.0000     0.0000     0.0000     0.0000 </r>
        <r>    -4.2436     0.0000     0.0000     0.0000     0.0000     0.0000     0.0000     0.0000     0.0000     0.0000 </r>
        <r>    -4.2153     0.0000     0.0000     0.0000     0.0000     0.0000     0.0000     0.0000     0.0000     0.0000 </r>
        <r>    -4.1869     0.0000     0.0000     0.0000     0.0000     0.0000     0.0000     0.0000     0.0000     0.0000 </r>
        <r>    -4.1586     0.0000     0.0000     0.0000     0.0000     0.0000     0.0000     0.0000     0.0000     0.0000 </r>
        <r>    -4.1303     0.0000     0.0000     0.0000     0.0000     0.0000     0.0000     0.0000     0.0000     0.0000 </r>
        <r>    -4.1020     0.0000     0.0000     0.0000     0.0000     0.0000     0.0000     0.0000     0.0000     0.0000 </r>
        <r>    -4.0737     0.0000     0.0000     0.0000     0.0000     0.0000     0.0000     0.0000     0.0000     0.0000 </r>
        <r>    -4.0454     0.0000     0.0000     0.0000     0.0000     0.0000     0.0000     0.0000     0.0000     0.0000 </r>
        <r>    -4.0171     0.0000     0.0000     0.0000     0.0000     0.0000     0.0000     0.0000     0.0000     0.0000 </r>
        <r>    -3.9887     0.0000     0.0000     0.0000     0.0000     0.0000     0.0000     0.0000     0.0000     0.0000 </r>
        <r>    -3.9604     0.0000     0.0000     0.0000     0.0000     0.0000     0.0000     0.0000     0.0000     0.0000 </r>
        <r>    -3.9321     0.0000     0.0000     0.0000     0.0000     0.0000     0.0000     0.0000     0.0000     0.0000 </r>
        <r>    -3.9038     0.0000     0.0000     0.0000     0.0000     0.0000     0.0000     0.0000     0.0000     0.0000 </r>
        <r>    -3.8755     0.0000     0.0000     0.0000     0.0000     0.0000     0.0000     0.0000     0.0000     0.0000 </r>
        <r>    -3.8472     0.0000     0.0000     0.0000     0.0000     0.0000     0.0000     0.0000     0.0000     0.0000 </r>
        <r>    -3.8188     0.0000     0.0000     0.0000     0.0000     0.0000     0.0000     0.0000     0.0000     0.0000 </r>
        <r>    -3.7905     0.0000     0.0000     0.0000     0.0000     0.0000     0.0000     0.0000     0.0000     0.0000 </r>
        <r>    -3.7622     0.0000     0.0000     0.0000     0.0000     0.0000     0.0000     0.0000     0.0000     0.0000 </r>
        <r>    -3.7339     0.0000     0.0000     0.0000     0.0000     0.0000     0.0000     0.0000     0.0000     0.0000 </r>
        <r>    -3.7056     0.0000     0.0000     0.0000     0.0000     0.0000     0.0000     0.0000     0.0000     0.0000 </r>
        <r>    -3.6773     0.0000     0.0000     0.0000     0.0000     0.0000     0.0000     0.0000     0.0000     0.0000 </r>
        <r>    -3.6490     0.0000     0.0000     0.0000     0.0000     0.0000     0.0000     0.0000     0.0000     0.0000 </r>
        <r>    -3.6206     0.0000     0.0000     0.0000     0.0000     0.0000     0.0000     0.0000     0.0000     0.0000 </r>
        <r>    -3.5923     0.0000     0.0000     0.0000     0.0000     0.0000     0.0000     0.0000     0.0000     0.0000 </r>
        <r>    -3.5640     0.0000     0.0000     0.0000     0.0000     0.0000     0.0000     0.0000     0.0000     0.0000 </r>
        <r>    -3.5357     0.0000     0.0000     0.0000     0.0000     0.0000     0.0000     0.0000     0.0000     0.0000 </r>
        <r>    -3.5074     0.0000     0.0000     0.0000     0.0000     0.0000     0.0000     0.0000     0.0000     0.0000 </r>
        <r>    -3.4791     0.0000     0.0000     0.0000     0.0000     0.0000     0.0000     0.0000     0.0000     0.0000 </r>
        <r>    -3.4508     0.0000     0.0000     0.0000     0.0000     0.0000     0.0000     0.0000     0.0000     0.0000 </r>
        <r>    -3.4224     0.0000     0.0000     0.0000     0.0000     0.0000     0.0000     0.0000     0.0000     0.0000 </r>
        <r>    -3.3941     0.0000     0.0000     0.0000     0.0000     0.0000     0.0000     0.0000     0.0000     0.0000 </r>
        <r>    -3.3658     0.0000     0.0000     0.0000     0.0000     0.0000     0.0000     0.0000     0.0000     0.0000 </r>
[...]
        <r>    -2.6579     0.0000     0.0000     0.0000     0.0000     0.0000     0.0000     0.0000     0.0000     0.0000 </r>
        <r>    -2.6296     0.0000     0.0000     0.0000     0.0000     0.0000     0.0000     0.0000     0.0000     0.0000 </r>
        <r>    -2.6013     0.0000     0.0000     0.0000     0.0000     0.0000     0.0000     0.0000     0.0000     0.0000 </r>
        <r>    -2.5730     0.0000     0.0000     0.0000     0.0000     0.0000     0.0000     0.0000     0.0000     0.0000 </r>
        <r>    -2.5447     0.0000     0.0000     0.0000     0.0000     0.0000     0.0000     0.0000     0.0000     0.0000 </r>
        <r>    -2.5164     0.0000     0.0000     0.0000     0.0000     0.0000     0.0000     0.0000     0.0000     0.0000 </r>
        <r>    -2.4880     0.0000     0.0000     0.0000     0.0000     0.0000     0.0000     0.0000     0.0000     0.0000 </r>
        <r>    -2.4597     0.0000     0.0000     0.0000     0.0000     0.0000     0.0000     0.0000     0.0000     0.0000 </r>
        <r>    -2.4314     0.0000     0.0000     0.0000     0.0000     0.0000     0.0000     0.0000     0.0000     0.0000 </r>
        <r>    -2.4031     0.0000     0.0000     0.0000     0.0000     0.0000     0.0000     0.0000     0.0000     0.0000 </r>
        <r>    -2.3748     0.0000     0.0000     0.0000     0.0000     0.0000     0.0000     0.0000     0.0000     0.0000 </r>
        <r>    -2.3465     0.0000     0.0000     0.0000     0.0000     0.0000     0.0000     0.0000     0.0000     0.0000 </r>
        <r>    -2.3182     0.0000     0.0000     0.0000     0.0000     0.0000     0.0000     0.0000     0.0000     0.0000 </r>
        <r>    -2.2898     0.0000     0.0000     0.0000     0.0000     0.0000     0.0000     0.0000     0.0000     0.0000 </r>
        <r>    -2.2615     0.0000     0.0000     0.0000     0.0000     0.0000     0.0000     0.0000     0.0000     0.0000 </r>
        <r>    -2.2332     0.0000     0.0000     0.0000     0.0000     0.0000     0.0000     0.0000     0.0000     0.0000 </r>
        <r>    -2.2049     0.0000     0.0000     0.0000     0.0000     0.0000     0.0000     0.0000     0.0000     0.0000 </r>
        <r>    -2.1766     0.0000     0.0000     0.0000     0.0000     0.0000     0.0000     0.0000     0.0000     0.0000 </r>
        <r>    -2.1483     0.0000     0.0000     0.0000     0.0000     0.0000     0.0000     0.0000     0.0000     0.0000 </r>
        <r>    -2.1199     0.0000     0.0000     0.0000     0.0000     0.0000     0.0000     0.0000     0.0000     0.0000 </r>
        <r>    -2.0916     0.0000     0.0000     0.0000     0.0000     0.0000     0.0000     0.0000     0.0000     0.0000 </r>
        <r>    -2.0633     0.0000     0.0000     0.0000     0.0000     0.0000     0.0000     0.0000     0.0000     0.0000 </r>
        <r>    -2.0350     0.0000     0.0000     0.0000     0.0000     0.0000     0.0000     0.0000     0.0000     0.0000 </r>
        <r>    -2.0067     0.0000     0.0000     0.0000     0.0000     0.0000     0.0000     0.0000     0.0000     0.0000 </r>
        <r>    -1.9784     0.1197     0.0000     0.0011     0.0000     0.0000     0.0000     0.0000     0.0000     0.0000 </r>
        <r>    -1.9501     0.1690     0.0000     0.0016     0.0000     0.0000     0.0000     0.0000     0.0000     0.0000 </r>
        <r>    -1.9217     0.0000     0.0000     0.0000     0.0000     0.0000     0.0000     0.0000     0.0000     0.0000 </r>
        <r>    -1.8934     0.0000     0.0000     0.0000     0.0000     0.0000     0.0000     0.0000     0.0000     0.0000 </r>
        <r>    -1.8651     0.0000     0.0001     0.0000     0.0001     0.0000     0.0000     0.0000     0.0000     0.0000 </r>
        <r>    -1.8368     0.0000     0.0000     0.0000     0.0000     0.0000     0.0000     0.0000     0.0000     0.0000 </r>
        <r>    -1.8085     0.0000     0.0000     0.0000     0.0000     0.0000     0.0000     0.0000     0.0000     0.0000 </r>
        <r>    -1.7802     0.0000     0.0000     0.0000     0.0000     0.0000     0.0000     0.0000     0.0000     0.0000 </r>
        <r>    -1.7519     0.0000     0.0000     0.0000     0.0000     0.0000     0.0000     0.0000     0.0000     0.0000 </r>
        <r>    -1.7235     0.0000     0.0000     0.0000     0.0000     0.0000     0.0000     0.0000     0.0000     0.0000 </r>
        <r>    -1.6952     0.0000     0.0000     0.0000     0.0000     0.0000     0.0000     0.0000     0.0000     0.0000 </r>
        <r>    -1.6669     0.0000     0.0000     0.0000     0.0000     0.0000     0.0000     0.0000     0.0000     0.0000 </r>
        <r>    -1.6386     0.0000     0.0000     0.0000     0.0000     0.0000     0.0000     0.0000     0.0000     0.0000 </r>
        <r>    -1.6103     0.0000     0.0000     0.0000     0.0000     0.0000     0.0000     0.0000     0.0000     0.0000 </r>
        <r>    -1.5820     0.0000     0.0000     0.0000     0.0000     0.0000     0.0000     0.0000     0.0000     0.0000 </r>
        <r>    -1.5537     0.0000     0.0000     0.0000     0.0000     0.0000     0.0000     0.0000     0.0000     0.0000 </r>
        <r>    -1.5253     0.0000     0.0000     0.0000     0.0000     0.0000     0.0000     0.0000     0.0000     0.0000 </r>
        <r>    -1.4970     0.0000     0.0000     0.0000     0.0000     0.0000     0.0000     0.0000     0.0000     0.0000 </r>
        <r>    -1.4687     0.0000     0.0000     0.0000     0.0000     0.0000     0.0000     0.0000     0.0000     0.0000 </r>
        <r>    -1.4404     0.0000     0.0000     0.0000     0.0000     0.0000     0.0000     0.0000     0.0000     0.0000 </r>
        <r>    -1.4121     0.0000     0.0000     0.0000     0.0000     0.0000     0.0000     0.0000     0.0000     0.0000 </r>
        <r>    -1.3838     0.0000     0.0000     0.0000     0.0000     0.0000     0.0000     0.0000     0.0000     0.0000 </r>
        <r>    -1.3554     0.0000     0.0000     0.0000     0.0000     0.0000     0.0000     0.0000     0.0000     0.0000 </r>
        <r>    -1.3271     0.0000     0.0000     0.0000     0.0000     0.0000     0.0000     0.0000     0.0000     0.0000 </r>
        <r>    -1.2988     0.0000     0.0000     0.0000     0.0000     0.0000     0.0000     0.0000     0.0000     0.0000 </r>
        <r>    -1.2705     0.0000     0.0000     0.0000     0.0000     0.0000     0.0000     0.0000     0.0000     0.0000 </r>
        <r>    -1.2422     0.0000     0.0000     0.0000     0.0000     0.0000     0.0000     0.0000     0.0000     0.0000 </r>
        <r>    -1.2139     0.0000     0.0000     0.0000     0.0000     0.0000     0.0000     0.0000     0.0000     0.0000 </r>
        <r>    -1.1856     0.0000     0.0000     0.0000     0.0000     0.0000     0.0000     0.0000     0.0000     0.0000 </r>
        <r>    -1.1572     0.0000     0.0000     0.0000     0.0000     0.0000     0.0000     0.0000     0.0000     0.0000 </r>
        <r>    -1.1289     0.0000     0.0000     0.0000     0.0000     0.0000     0.0000     0.0000     0.0000     0.0000 </r>
        <r>    -1.1006     0.0000     0.0000     0.0000     0.0000     0.0000     0.0000     0.0000     0.0000     0.0000 </r>
        <r>    -1.0723     0.0000     0.0000     0.0000     0.0000     0.0000     0.0000     0.0000     0.0000     0.0000 </r>
        <r>    -1.0440     0.0000     0.0000     0.0000     0.0000     0.0000     0.0000     0.0000     0.0000     0.0000 </r>
        <r>    -1.0157     0.0000     0.0000     0.0000     0.0000     0.0000     0.0000     0.0000     0.0000     0.0000 </r>
        <r>    -0.9874     0.0000     0.0000     0.0000     0.0000     0.0000     0.0000     0.0000     0.0000     0.0000 </r>
        <r>    -0.9590     0.0000     0.0000     0.0000     0.0000     0.0000     0.0000     0.0000     0.0000     0.0000 </r>
        <r>    -0.9307     0.0000     0.0000     0.0000     0.0000     0.0000     0.0000     0.0000     0.0000     0.0000 </r>
        <r>    -0.9024     0.0000     0.0000     0.0000     0.0000     0.0000     0.0000     0.0000     0.0000     0.0000 </r>
        <r>    -0.8741     0.0000     0.0000     0.0000     0.0000     0.0000     0.0000     0.0000     0.0000     0.0000 </r>
        <r>    -0.8458     0.0000     0.0000     0.0000     0.0000     0.0000     0.0000     0.0000     0.0000     0.0000 </r>
        <r>    -0.8175     0.0000     0.0000     0.0000     0.0000     0.0000     0.0000     0.0000     0.0000     0.0000 </r>
        <r>    -0.7891     0.0000     0.0000     0.0000     0.0000     0.0000     0.0000     0.0000     0.0000     0.0000 </r>
        <r>    -0.7608     0.0000     0.0000     0.0000     0.0000     0.0000     0.0000     0.0000     0.0000     0.0000 </r>
        <r>    -0.7325     0.0000     0.0000     0.0000     0.0000     0.0000     0.0000     0.0000     0.0000     0.0000 </r>
        <r>    -0.7042     0.0000     0.0000     0.0000     0.0000     0.0000     0.0000     0.0000     0.0000     0.0000 </r>
        <r>    -0.6759     0.0000     0.0000     0.0000     0.0000     0.0000     0.0000     0.0000     0.0000     0.0000 </r>
        <r>    -0.6476     0.0000     0.0000     0.0000     0.0000     0.0000     0.0000     0.0000     0.0000     0.0000 </r>
        <r>    -0.6193     0.0000     0.0000     0.0000     0.0000     0.0000     0.0000     0.0000     0.0000     0.0000 </r>
        <r>    -0.5909     0.0000     0.0000     0.0000     0.0000     0.0000     0.0000     0.0000     0.0000     0.0000 </r>
        <r>    -0.5626     0.0000     0.0000     0.0000     0.0000     0.0000     0.0000     0.0000     0.0000     0.0000 </r>
        <r>    -0.5343     0.0000     0.0000     0.0000     0.0000     0.0000     0.0000     0.0000     0.0000     0.0000 </r>
        <r>    -0.5060     0.0000     0.0000     0.0000     0.0000     0.0000     0.0000     0.0000     0.0000     0.0000 </r>
        <r>    -0.4777     0.1525     0.0000     0.0001     0.0000     0.0000     0.0000     0.0000     0.0000     0.0000 </r>
        <r>    -0.4494     1.5630     0.0000     0.0010     0.0000     0.0000     0.0000     0.0000     0.0000     0.0000 </r>
        <r>    -0.4211     0.0068     0.0000     0.0000     0.0000     0.0000     0.0000     0.0000     0.0000     0.0000 </r>
        <r>    -0.3927     0.0000     0.0000     0.0000     0.0000     0.0000     0.0000     0.0000     0.0000     0.0000 </r>
        <r>    -0.3644     0.0000     0.0000     0.0000     0.0000     0.0000     0.0000     0.0000     0.0000     0.0000 </r>
        <r>    -0.3361     0.0000     0.0000     0.0000     0.0000     0.0000     0.0000     0.0000     0.0000     0.0000 </r>
        <r>    -0.3078     0.0000     0.0000     0.0000     0.0000     0.0000     0.0000     0.0000     0.0000     0.0000 </r>
        <r>    -0.2795     0.0000     0.0000     0.0000     0.0000     0.0000     0.0000     0.0000     0.0000     0.0000 </r>
        <r>    -0.2512     0.0000     0.0000     0.0000     0.0000     0.0000     0.0000     0.0000     0.0000     0.0000 </r>
        <r>    -0.2228     0.0000     0.0000     0.0000     0.0000     0.0000     0.0000     0.0000     0.0000     0.0000 </r>
        <r>    -0.1945     0.0000     0.0000     0.0000     0.0000     0.0000     0.0000     0.0000     0.0000     0.0000 </r>
        <r>    -0.1662     0.0000     0.0000     0.0000     0.0000     0.0000     0.0000     0.0000     0.0000     0.0000 </r>
        <r>    -0.1379     0.0000     0.0000     0.0000     0.0000     0.0000     0.0000     0.0000     0.0000     0.0000 </r>
        <r>    -0.1096     0.0000     0.0000     0.0000     0.0000     0.0000     0.0000     0.0000     0.0000     0.0000 </r>
        <r>    -0.0813     0.0000     0.0000     0.0000     0.0000     0.0000     0.0000     0.0000     0.0000     0.0000 </r>
        <r>    -0.0530     0.0000     0.0000     0.0000     0.0000     0.0000     0.0000     0.0000     0.0000     0.0000 </r>
        <r>    -0.0246     0.0000     0.0000     0.0000     0.0000     0.0000     0.0000     0.0000     0.0000     0.0000 </r>
        <r>     0.0037     0.0000     0.0000     0.0000     0.0000     0.0000     0.0000     0.0000     0.0000     0.0000 </r>
        <r>     0.0320     0.0000     0.0000     0.0000     0.0000     0.0000     0.0000     0.0000     0.0000     0.0000 </r>
        <r>     0.0603     0.0000     0.0000     0.0000     0.0000     0.0000     0.0000     0.0000     0.0000     0.0000 </r>
        <r>     0.0886     0.0000     0.0000     0.0000     0.0000     0.0000     0.0000     0.0000     0.0000     0.0000 </r>
        <r>     0.1169     0.0000     0.0000     0.0000     0.0000     0.0000     0.0000     0.0000     0.0000     0.0000 </r>
        <r>     0.1452     0.0000     0.0000     0.0000     0.0000     0.0000     0.0000     0.0000     0.0000     0.0000 </r>
        <r>     0.1736     0.0000     0.0000     0.0000     0.0000     0.0000     0.0000     0.0000     0.0000     0.0000 </r>
        <r>     0.2019     0.0000     0.0000     0.0000     0.0000     0.0000     0.0000     0.0000     0.0000     0.0000 </r>
        <r>     0.2302     0.1480     0.0000     0.0001     0.0000     0.0000     0.0000     0.0000     0.0000     0.0000 </r>
        <r>     0.2585     1.8768     0.0000     0.0014     0.0000     0.0000     0.0000     0.0000     0.0000     0.0000 </r>
        <r>     0.2868     0.0110     0.0000     0.0000     0.0000     0.0000     0.0000     0.0000     0.0000     0.0000 </r>
        <r>     0.3151     0.0000     0.0000     0.0000     0.0000     0.0000     0.0000     0.0000     0.0000     0.0000 </r>
        <r>     0.3435     0.0000     0.0000     0.0000     0.0000     0.0000     0.0000     0.0000     0.0000     0.0000 </r>
        <r>     0.3718     0.0000     0.0000     0.0000     0.0000     0.0000     0.0000     0.0000     0.0000     0.0000 </r>
        <r>     0.4001     0.0000     0.0000     0.0000     0.0000     0.0000     0.0000     0.0000     0.0000     0.0000 </r>
        <r>     0.4284     0.0000     0.0000     0.0000     0.0000     0.0000     0.0000     0.0000     0.0000     0.0000 </r>
        <r>     0.4567     0.0000     0.0000     0.0000     0.0000     0.0000     0.0000     0.0000     0.0000     0.0000 </r>
        <r>     0.4850     0.0000     0.0000     0.0000     0.0000     0.0000     0.0000     0.0000     0.0000     0.0000 </r>
        <r>     0.5133     0.0000     0.0000     0.0000     0.0000     0.0000     0.0000     0.0000     0.0000     0.0000 </r>
        <r>     0.5417     0.0000     0.0000     0.0000     0.0000     0.0000     0.0000     0.0000     0.0000     0.0000 </r>
        <r>     0.5700     0.0000     0.0000     0.0000     0.0000     0.0000     0.0000     0.0000     0.0000     0.0000 </r>
        <r>     0.5983     0.0000     0.0000     0.0000     0.0000     0.0000     0.0000     0.0000     0.0000     0.0000 </r>
        <r>     0.6266     0.0000     0.0000     0.0000     0.0000     0.0000     0.0000     0.0000     0.0000     0.0000 </r>
       </set>
      </set>
     </set>
    </array>
   </partial>
  </dos>
  <projected>
   <eigenvalues>
    <array>
     <dimension dim="1">band</dimension>
     <dimension dim="2">kpoint</dimension>
     <dimension dim="3">spin</dimension>
     <field>eigene</field>
     <field>occ</field>
     <set>
      <set comment="spin 1">
       <set comment="kpoint 1">
        <r>   -7.4818    1.0000 </r>
        <r>   -5.4678    1.0000 </r>
        <r>   -1.8856    0.0000 </r>
        <r>   -1.8856    0.0000 </r>
        <r>   -1.8646    0.0000 </r>
        <r>   -0.2650    0.0000 </r>
       </set>
      </set>
      <set comment="spin 2">
       <set comment="kpoint 1">
        <r>   -5.4846    1.0000 </r>
        <r>   -1.9769    0.0000 </r>
        <r>   -1.8749    0.0000 </r>
        <r>   -1.8749    0.0000 </r>
        <r>   -0.4681    0.0000 </r>
        <r>    0.2405    0.0000 </r>
       </set>
      </set>
     </set>
    </array>
   </eigenvalues>
   <array>
    <dimension dim="1">ion</dimension>
    <dimension dim="2">band</dimension>
    <dimension dim="3">kpoint</dimension>
    <dimension dim="4">spin</dimension>
    <field>    s</field>
    <field>   py</field>
    <field>   pz</field>
    <field>   px</field>
    <field>  dxy</field>
    <field>  dyz</field>
    <field>  dz2</field>
    <field>  dxz</field>
    <field>x2-y2</field>
    <set>
     <set comment="spin1">
      <set comment="kpoint 1">
       <set comment="band 1">
        <r>  0.0013  0.0000  0.0002  0.0000  0.0000  0.0000  0.0000  0.0000  0.0000 </r>
        <r>  0.3753  0.0000  0.0000  0.0000  0.0000  0.0000  0.0000  0.0000  0.0000 </r>
       </set>
       <set comment="band 2">
        <r>  0.3348  0.0000  0.0001  0.0000  0.0000  0.0000  0.0000  0.0000  0.0000 </r>
        <r>  0.0039  0.0000  0.0000  0.0000  0.0000  0.0000  0.0000  0.0000  0.0000 </r>
       </set>
       <set comment="band 3">
        <r>  0.0000  0.1149  0.0000  0.1401  0.0000  0.0000  0.0000  0.0000  0.0000 </r>
        <r>  0.0000  0.0000  0.0000  0.0000  0.0000  0.0000  0.0000  0.0000  0.0000 </r>
       </set>
       <set comment="band 4">
        <r>  0.0000  0.1401  0.0000  0.1149  0.0000  0.0000  0.0000  0.0000  0.0000 </r>
        <r>  0.0000  0.0000  0.0000  0.0000  0.0000  0.0000  0.0000  0.0000  0.0000 </r>
       </set>
       <set comment="band 5">
        <r>  0.0002  0.0000  0.2538  0.0000  0.0000  0.0000  0.0000  0.0000  0.0000 </r>
        <r>  0.0038  0.0000  0.0002  0.0000  0.0000  0.0000  0.0000  0.0000  0.0000 </r>
       </set>
       <set comment="band 6">
        <r>  0.0163  0.0000  0.0016  0.0000  0.0000  0.0000  0.0000  0.0000  0.0000 </r>
        <r>  0.0073  0.0000  0.0000  0.0000  0.0000  0.0000  0.0000  0.0000  0.0000 </r>
       </set>
      </set>
     </set>
     <set comment="spin2">
      <set comment="kpoint 1">
       <set comment="band 1">
        <r>  0.3338  0.0000  0.0001  0.0000  0.0000  0.0000  0.0000  0.0000  0.0000 </r>
        <r>  0.0002  0.0000  0.0000  0.0000  0.0000  0.0000  0.0000  0.0000  0.0000 </r>
       </set>
       <set comment="band 2">
        <r>  0.0005  0.0000  0.2311  0.0000  0.0000  0.0000  0.0000  0.0000  0.0000 </r>
        <r>  0.0082  0.0000  0.0001  0.0000  0.0000  0.0000  0.0000  0.0000  0.0000 </r>
       </set>
       <set comment="band 3">
        <r>  0.0000  0.2551  0.0000  0.0010  0.0000  0.0000  0.0000  0.0000  0.0000 </r>
        <r>  0.0000  0.0000  0.0000  0.0000  0.0000  0.0000  0.0000  0.0000  0.0000 </r>
       </set>
       <set comment="band 4">
        <r>  0.0000  0.0010  0.0000  0.2551  0.0000  0.0000  0.0000  0.0000  0.0000 </r>
        <r>  0.0000  0.0000  0.0000  0.0000  0.0000  0.0000  0.0000  0.0000  0.0000 </r>
       </set>
       <set comment="band 5">
        <r>  0.0200  0.0000  0.0140  0.0000  0.0000  0.0000  0.0000  0.0000  0.0000 </r>
        <r>  0.0488  0.0000  0.0000  0.0000  0.0000  0.0000  0.0000  0.0000  0.0000 </r>
       </set>
       <set comment="band 6">
        <r>  0.0030  0.0000  0.0204  0.0000  0.0000  0.0000  0.0000  0.0000  0.0000 </r>
        <r>  0.0576  0.0000  0.0000  0.0000  0.0000  0.0000  0.0000  0.0000  0.0000 </r>
       </set>
      </set>
     </set>
    </set>
   </array>
  </projected>
 </calculation>
 <structure name="finalpos" >
  <crystal>
   <varray name="basis" >
    <v>      10.00000000       0.00000000       0.00000000 </v>
    <v>       0.00000000      10.00000000       0.00000000 </v>
    <v>       0.00000000       0.00000000      11.34827000 </v>
   </varray>
   <i name="volume">   1134.82700000 </i>
   <varray name="rec_basis" >
    <v>       0.10000000       0.00000000       0.00000000 </v>
    <v>       0.00000000       0.10000000       0.00000000 </v>
    <v>       0.00000000       0.00000000       0.08811916 </v>
   </varray>
  </crystal>
  <varray name="positions" >
   <v>       0.50000000       0.50000000       0.67183236 </v>
   <v>       0.50000000       0.50000000       0.32816764 </v>
  </varray>
 </structure>
</modeling>
