unknown system                          
           1
    10.000000    0.000000    0.000000
     0.000000   10.000000    0.000000
     0.000000    0.000000   11.348270
   Be   H 
     1     1
Direct configuration=     1
   0.50000000  0.50000000  0.67183236
   0.50000000  0.50000000  0.32816764
