unknown system                          
   1.0000000000000000     
     4.417046    0.000000    0.000000
     0.000000    3.084959    0.000000
     0.000000    0.000000    3.084959
   H    Be
     2     1
Direct
  0.900000  0.500000  0.500000
  0.100000  0.500000  0.500000
  0.500000  0.500000  0.500000

   28   28   28
 0.78347     0.79473     0.82941     0.88931     0.97499      1.0835      1.2075      1.3373      1.4631      1.5786    
  1.6805      1.7668      1.8344      1.8783      1.8936      1.8783      1.8344      1.7668      1.6805      1.5786    
  1.4631      1.3373      1.2075      1.0835     0.97499     0.88931     0.82941     0.79473     0.77511     0.78685    
 0.82282     0.88445     0.97188      1.0820      1.2075      1.3389      1.4666      1.5840      1.6878      1.7756    
  1.8442      1.8886      1.9041      1.8886      1.8442      1.7756      1.6878      1.5840      1.4666      1.3389    
  1.2075      1.0820     0.97188     0.88445     0.82282     0.78685     0.75525     0.76821     0.80745     0.87342    
 0.96529      1.0794      1.2088      1.3444      1.4770      1.5999      1.7087      1.8005      1.8716      1.9172    
  1.9330      1.9172      1.8716      1.8005      1.7087      1.5999      1.4770      1.3444      1.2088      1.0794    
 0.96529     0.87342     0.80745     0.76821     0.73419     0.74861     0.79174     0.86293     0.96021      1.0794    
  1.2138      1.3550      1.4942      1.6243      1.7400      1.8371      1.9113      1.9584      1.9745      1.9584    
  1.9113      1.8371      1.7400      1.6243      1.4942      1.3550      1.2138      1.0794     0.96021     0.86293    
 0.79174     0.74861     0.71765     0.73330     0.77983     0.85583     0.95845      1.0831      1.2231      1.3705    
  1.5170      1.6549      1.7777      1.8801      1.9574      2.0057      2.0221      2.0057      1.9574      1.8801    
  1.7777      1.6549      1.5170      1.3705      1.2231      1.0831     0.95845     0.85583     0.77983     0.73330    
 0.70402     0.72049     0.76950     0.84957     0.95760      1.0885      1.2354      1.3901      1.5443      1.6897    
  1.8190      1.9260      2.0059      2.0552      2.0719      2.0552      2.0059      1.9260      1.8190      1.6897    
  1.5443      1.3901      1.2354      1.0885     0.95760     0.84957     0.76950     0.72049     0.69059     0.70748    
 0.75812     0.84176     0.95573      1.0945      1.2503      1.4140      1.5764      1.7289      1.8638      1.9747    
  2.0567      2.1069      2.1237      2.1069      2.0567      1.9747      1.8638      1.7289      1.5764      1.4140    
  1.2503      1.0945     0.95573     0.84176     0.75812     0.70748     0.67988     0.69691     0.74859     0.83549    
 0.95586      1.1040      1.2705      1.4445      1.6157      1.7748      1.9144      2.0284      2.1121      2.1630    
  2.1801      2.1630      2.1121      2.0284      1.9144      1.7748      1.6157      1.4445      1.2705      1.1040    
 0.95586     0.83549     0.74859     0.69691     0.67796     0.69510     0.74771     0.83777     0.96456      1.1221    
  1.2994      1.4838      1.6634      1.8287      1.9726      2.0891      2.1742      2.2257      2.2429      2.2257    
  2.1742      2.0891      1.9726      1.8287      1.6634      1.4838      1.2994      1.1221     0.96456     0.83777    
 0.74771     0.69510     0.68725     0.70480     0.75906     0.85280     0.98571      1.1513      1.3375      1.5302    
  1.7170      1.8882      2.0365      2.1560      2.2424      2.2941      2.3113      2.2941      2.2424      2.1560    
  2.0365      1.8882      1.7170      1.5302      1.3375      1.1513     0.98571     0.85280     0.75906     0.70480    
 0.70264     0.72131     0.77879     0.87745      1.0162      1.1876      1.3791      1.5770      1.7693      1.9467    
  2.1008      2.2242      2.3122      2.3639      2.3808      2.3639      2.3122      2.2242      2.1008      1.9467    
  1.7693      1.5770      1.3791      1.1876      1.0162     0.87745     0.77879     0.72131     0.71551     0.73609    
 0.79856     0.90344      1.0475      1.2222      1.4155      1.6156      1.8124      1.9967      2.1582      2.2870    
  2.3771      2.4285      2.4450      2.4285      2.3771      2.2870      2.1582      1.9967      1.8124      1.6156    
  1.4155      1.2222      1.0475     0.90344     0.79856     0.73609     0.72087     0.74376     0.81202     0.92339    
  1.0719      1.2478      1.4405      1.6409      1.8414      2.0329      2.2026      2.3374      2.4298      2.4810    
  2.4969      2.4810      2.4298      2.3374      2.2026      2.0329      1.8414      1.6409      1.4405      1.2478    
  1.0719     0.92339     0.81202     0.74376     0.72047     0.74529     0.81827     0.93460      1.0859      1.2620    
  1.4533      1.6535      1.8568      2.0539      2.2301      2.3698      2.4642      2.5152      2.5308      2.5152    
  2.4642      2.3698      2.2301      2.0539      1.8568      1.6535      1.4533      1.2620      1.0859     0.93460    
 0.81827     0.74529     0.71945     0.74503     0.81983     0.93803      1.0904      1.2663      1.4570      1.6570    
  1.8613      2.0606      2.2394      2.3810      2.4761      2.5271      2.5426      2.5271      2.4761      2.3810    
  2.2394      2.0606      1.8613      1.6570      1.4570      1.2663      1.0904     0.93803     0.81983     0.74503    
 0.72047     0.74529     0.81827     0.93460      1.0859      1.2620      1.4533      1.6535      1.8568      2.0539    
  2.2301      2.3698      2.4642      2.5152      2.5308      2.5152      2.4642      2.3698      2.2301      2.0539    
  1.8568      1.6535      1.4533      1.2620      1.0859     0.93460     0.81827     0.74529     0.72087     0.74376    
 0.81202     0.92339      1.0719      1.2478      1.4405      1.6409      1.8414      2.0329      2.2026      2.3374    
  2.4298      2.4810      2.4969      2.4810      2.4298      2.3374      2.2026      2.0329      1.8414      1.6409    
  1.4405      1.2478      1.0719     0.92339     0.81202     0.74376     0.71551     0.73609     0.79856     0.90344    
  1.0475      1.2222      1.4155      1.6156      1.8124      1.9967      2.1582      2.2870      2.3771      2.4285    
  2.4450      2.4285      2.3771      2.2870      2.1582      1.9967      1.8124      1.6156      1.4155      1.2222    
  1.0475     0.90344     0.79856     0.73609     0.70264     0.72131     0.77879     0.87745      1.0162      1.1876    
  1.3791      1.5770      1.7693      1.9467      2.1008      2.2242      2.3122      2.3639      2.3808      2.3639    
  2.3122      2.2242      2.1008      1.9467      1.7693      1.5770      1.3791      1.1876      1.0162     0.87745    
 0.77879     0.72131     0.68725     0.70480     0.75906     0.85280     0.98571      1.1513      1.3375      1.5302    
  1.7170      1.8882      2.0365      2.1560      2.2424      2.2941      2.3113      2.2941      2.2424      2.1560    
  2.0365      1.8882      1.7170      1.5302      1.3375      1.1513     0.98571     0.85280     0.75906     0.70480    
 0.67796     0.69510     0.74771     0.83777     0.96456      1.1221      1.2994      1.4838      1.6634      1.8287    
  1.9726      2.0891      2.1742      2.2257      2.2429      2.2257      2.1742      2.0891      1.9726      1.8287    
  1.6634      1.4838      1.2994      1.1221     0.96456     0.83777     0.74771     0.69510     0.67988     0.69691    
 0.74859     0.83549     0.95586      1.1040      1.2705      1.4445      1.6157      1.7748      1.9144      2.0284    
  2.1121      2.1630      2.1801      2.1630      2.1121      2.0284      1.9144      1.7748      1.6157      1.4445    
  1.2705      1.1040     0.95586     0.83549     0.74859     0.69691     0.69059     0.70748     0.75812     0.84176    
 0.95573      1.0945      1.2503      1.4140      1.5764      1.7289      1.8638      1.9747      2.0567      2.1069    
  2.1237      2.1069      2.0567      1.9747      1.8638      1.7289      1.5764      1.4140      1.2503      1.0945    
 0.95573     0.84176     0.75812     0.70748     0.70402     0.72049     0.76950     0.84957     0.95760      1.0885    
  1.2354      1.3901      1.5443      1.6897      1.8190      1.9260      2.0059      2.0552      2.0719      2.0552    
  2.0059      1.9260      1.8190      1.6897      1.5443      1.3901      1.2354      1.0885     0.95760     0.84957    
 0.76950     0.72049     0.71765     0.73330     0.77983     0.85583     0.95845      1.0831      1.2231      1.3705    
  1.5170      1.6549      1.7777      1.8801      1.9574      2.0057      2.0221      2.0057      1.9574      1.8801    
  1.7777      1.6549      1.5170      1.3705      1.2231      1.0831     0.95845     0.85583     0.77983     0.73330    
 0.73419     0.74861     0.79174     0.86293     0.96021      1.0794      1.2138      1.3550      1.4942      1.6243    
  1.7400      1.8371      1.9113      1.9584      1.9745      1.9584      1.9113      1.8371      1.7400      1.6243    
  1.4942      1.3550      1.2138      1.0794     0.96021     0.86293     0.79174     0.74861     0.75525     0.76821    
 0.80745     0.87342     0.96529      1.0794      1.2088      1.3444      1.4770      1.5999      1.7087      1.8005    
  1.8716      1.9172      1.9330      1.9172      1.8716      1.8005      1.7087      1.5999      1.4770      1.3444    
  1.2088      1.0794     0.96529     0.87342     0.80745     0.76821     0.77511     0.78685     0.82282     0.88445    
 0.97188      1.0820      1.2075      1.3389      1.4666      1.5840      1.6878      1.7756      1.8442      1.8886    
  1.9041      1.8886      1.8442      1.7756      1.6878      1.5840      1.4666      1.3389      1.2075      1.0820    
 0.97188     0.88445     0.82282     0.78685     0.77511     0.78685     0.82282     0.88445     0.97188      1.0820    
  1.2075      1.3389      1.4666      1.5840      1.6878      1.7756      1.8442      1.8886      1.9041      1.8886    
  1.8442      1.7756      1.6878      1.5840      1.4666      1.3389      1.2075      1.0820     0.97188     0.88445    
 0.82282     0.78685     0.76774     0.77993     0.81709     0.88028     0.96926      1.0807      1.2075      1.3403    
  1.4697      1.5891      1.6947      1.7839      1.8534      1.8983      1.9139      1.8983      1.8534      1.7839    
  1.6947      1.5891      1.4697      1.3403      1.2075      1.0807     0.96926     0.88028     0.81709     0.77993    
 0.74993     0.76327     0.80351     0.87071     0.96367      1.0786      1.2087      1.3452      1.4792      1.6037    
  1.7143      1.8074      1.8793      1.9253      1.9412      1.9253      1.8793      1.8074      1.7143      1.6037    
  1.4792      1.3452      1.2087      1.0786     0.96367     0.87071     0.80351     0.76327     0.73025     0.74502    
 0.78906     0.86126     0.95928      1.0788      1.2134      1.3550      1.4953      1.6269      1.7441      1.8424    
  1.9174      1.9647      1.9809      1.9647      1.9174      1.8424      1.7441      1.6269      1.4953      1.3550    
  1.2134      1.0788     0.95928     0.86126     0.78906     0.74502     0.71370     0.72975     0.77726     0.85431    
 0.95762      1.0824      1.2224      1.3702      1.5176      1.6568      1.7811      1.8846      1.9625      2.0110    
  2.0275      2.0110      1.9625      1.8846      1.7811      1.6568      1.5176      1.3702      1.2224      1.0824    
 0.95762     0.85431     0.77726     0.72975     0.69938     0.71631     0.76646     0.84780     0.95672      1.0880    
  1.2351      1.3902      1.5453      1.6921      1.8229      1.9310      2.0116      2.0611      2.0778      2.0611    
  2.0116      1.9310      1.8229      1.6921      1.5453      1.3902      1.2351      1.0880     0.95672     0.84780    
 0.76646     0.71631     0.68548     0.70288     0.75481     0.83997     0.95516      1.0948      1.2512      1.4156    
  1.5792      1.7332      1.8695      1.9815      2.0642      2.1146      2.1316      2.1146      2.0642      1.9815    
  1.8695      1.7332      1.5792      1.4156      1.2512      1.0948     0.95516     0.83997     0.75481     0.70288    
 0.67462     0.69219     0.74527     0.83394     0.95595      1.1054      1.2731      1.4484      1.6210      1.7817    
  1.9227      2.0377      2.1221      2.1733      2.1905      2.1733      2.1221      2.0377      1.9227      1.7817    
  1.6210      1.4484      1.2731      1.1054     0.95595     0.83394     0.74527     0.69219     0.67237     0.69006    
 0.74418     0.83630     0.96527      1.1248      1.3041      1.4902      1.6715      1.8383      1.9834      2.1008    
  2.1866      2.2384      2.2557      2.2384      2.1866      2.1008      1.9834      1.8383      1.6715      1.4902    
  1.3041      1.1248     0.96527     0.83630     0.74418     0.69006     0.68079     0.69892     0.75479     0.85095    
 0.98669      1.1552      1.3441      1.5391      1.7277      1.9003      2.0495      2.1695      2.2563      2.3084    
  2.3256      2.3084      2.2563      2.1695      2.0495      1.9003      1.7277      1.5391      1.3441      1.1552    
 0.98669     0.85095     0.75479     0.69892     0.69473     0.71399     0.77323     0.87470      1.0170      1.1922    
  1.3874      1.5882      1.7826      1.9610      2.1154      2.2388      2.3270      2.3789      2.3959      2.3789    
  2.3270      2.2388      2.1154      1.9610      1.7826      1.5882      1.3874      1.1922      1.0170     0.87470    
 0.77323     0.71399     0.70550     0.72671     0.79115     0.89931      1.0478      1.2273      1.4253      1.6289    
  1.8279      2.0128      2.1739      2.3020      2.3919      2.4436      2.4601      2.4436      2.3919      2.3020    
  2.1739      2.0128      1.8279      1.6289      1.4253      1.2273      1.0478     0.89931     0.79115     0.72671    
 0.70827     0.73187     0.80235     0.91754      1.0712      1.2531      1.4513      1.6559      1.8586      2.0502    
  2.2188      2.3524      2.4444      2.4957      2.5118      2.4957      2.4444      2.3524      2.2188      2.0502    
  1.8586      1.6559      1.4513      1.2531      1.0712     0.91754     0.80235     0.73187     0.70553     0.73113    
 0.80657     0.92721      1.0845      1.2672      1.4648      1.6696      1.8750      2.0719      2.2466      2.3847    
  2.4784      2.5296      2.5454      2.5296      2.4784      2.3847      2.2466      2.0719      1.8750      1.6696    
  1.4648      1.2672      1.0845     0.92721     0.80657     0.73113     0.70355     0.72993     0.80730     0.93000    
  1.0885      1.2714      1.4687      1.6734      1.8799      2.0789      2.2559      2.3958      2.4902      2.5413    
  2.5570      2.5413      2.4902      2.3958      2.2559      2.0789      1.8799      1.6734      1.4687      1.2714    
  1.0885     0.93000     0.80730     0.72993     0.70553     0.73113     0.80657     0.92721      1.0845      1.2672    
  1.4648      1.6696      1.8750      2.0719      2.2466      2.3847      2.4784      2.5296      2.5454      2.5296    
  2.4784      2.3847      2.2466      2.0719      1.8750      1.6696      1.4648      1.2672      1.0845     0.92721    
 0.80657     0.73113     0.70827     0.73187     0.80235     0.91754      1.0712      1.2531      1.4513      1.6559    
  1.8586      2.0502      2.2188      2.3524      2.4444      2.4957      2.5118      2.4957      2.4444      2.3524    
  2.2188      2.0502      1.8586      1.6559      1.4513      1.2531      1.0712     0.91754     0.80235     0.73187    
 0.70550     0.72671     0.79115     0.89931      1.0478      1.2273      1.4253      1.6289      1.8279      2.0128    
  2.1739      2.3020      2.3919      2.4436      2.4601      2.4436      2.3919      2.3020      2.1739      2.0128    
  1.8279      1.6289      1.4253      1.2273      1.0478     0.89931     0.79115     0.72671     0.69473     0.71399    
 0.77323     0.87470      1.0170      1.1922      1.3874      1.5882      1.7826      1.9610      2.1154      2.2388    
  2.3270      2.3789      2.3959      2.3789      2.3270      2.2388      2.1154      1.9610      1.7826      1.5882    
  1.3874      1.1922      1.0170     0.87470     0.77323     0.71399     0.68079     0.69892     0.75479     0.85095    
 0.98669      1.1552      1.3441      1.5391      1.7277      1.9003      2.0495      2.1695      2.2563      2.3084    
  2.3256      2.3084      2.2563      2.1695      2.0495      1.9003      1.7277      1.5391      1.3441      1.1552    
 0.98669     0.85095     0.75479     0.69892     0.67237     0.69006     0.74418     0.83630     0.96527      1.1248    
  1.3041      1.4902      1.6715      1.8383      1.9834      2.1008      2.1866      2.2384      2.2557      2.2384    
  2.1866      2.1008      1.9834      1.8383      1.6715      1.4902      1.3041      1.1248     0.96527     0.83630    
 0.74418     0.69006     0.67462     0.69219     0.74527     0.83394     0.95595      1.1054      1.2731      1.4484    
  1.6210      1.7817      1.9227      2.0377      2.1221      2.1733      2.1905      2.1733      2.1221      2.0377    
  1.9227      1.7817      1.6210      1.4484      1.2731      1.1054     0.95595     0.83394     0.74527     0.69219    
 0.68548     0.70288     0.75481     0.83997     0.95516      1.0948      1.2512      1.4156      1.5792      1.7332    
  1.8695      1.9815      2.0642      2.1146      2.1316      2.1146      2.0642      1.9815      1.8695      1.7332    
  1.5792      1.4156      1.2512      1.0948     0.95516     0.83997     0.75481     0.70288     0.69938     0.71631    
 0.76646     0.84780     0.95672      1.0880      1.2351      1.3902      1.5453      1.6921      1.8229      1.9310    
  2.0116      2.0611      2.0778      2.0611      2.0116      1.9310      1.8229      1.6921      1.5453      1.3902    
  1.2351      1.0880     0.95672     0.84780     0.76646     0.71631     0.71370     0.72975     0.77726     0.85431    
 0.95762      1.0824      1.2224      1.3702      1.5176      1.6568      1.7811      1.8846      1.9625      2.0110    
  2.0275      2.0110      1.9625      1.8846      1.7811      1.6568      1.5176      1.3702      1.2224      1.0824    
 0.95762     0.85431     0.77726     0.72975     0.73025     0.74502     0.78906     0.86126     0.95928      1.0788    
  1.2134      1.3550      1.4953      1.6269      1.7441      1.8424      1.9174      1.9647      1.9809      1.9647    
  1.9174      1.8424      1.7441      1.6269      1.4953      1.3550      1.2134      1.0788     0.95928     0.86126    
 0.78906     0.74502     0.74993     0.76327     0.80351     0.87071     0.96367      1.0786      1.2087      1.3452    
  1.4792      1.6037      1.7143      1.8074      1.8793      1.9253      1.9412      1.9253      1.8793      1.8074    
  1.7143      1.6037      1.4792      1.3452      1.2087      1.0786     0.96367     0.87071     0.80351     0.76327    
 0.76774     0.77993     0.81709     0.88028     0.96926      1.0807      1.2075      1.3403      1.4697      1.5891    
  1.6947      1.7839      1.8534      1.8983      1.9139      1.8983      1.8534      1.7839      1.6947      1.5891    
  1.4697      1.3403      1.2075      1.0807     0.96926     0.88028     0.81709     0.77993     0.75525     0.76821    
 0.80745     0.87342     0.96529      1.0794      1.2088      1.3444      1.4770      1.5999      1.7087      1.8005    
  1.8716      1.9172      1.9330      1.9172      1.8716      1.8005      1.7087      1.5999      1.4770      1.3444    
  1.2088      1.0794     0.96529     0.87342     0.80745     0.76821     0.74993     0.76327     0.80351     0.87071    
 0.96367      1.0786      1.2087      1.3452      1.4792      1.6037      1.7143      1.8074      1.8793      1.9253    
  1.9412      1.9253      1.8793      1.8074      1.7143      1.6037      1.4792      1.3452      1.2087      1.0786    
 0.96367     0.87071     0.80351     0.76327     0.73631     0.75070     0.79363     0.86416     0.96010      1.0773    
  1.2095      1.3486      1.4864      1.6156      1.7307      1.8274      1.9014      1.9483      1.9644      1.9483    
  1.9014      1.8274      1.7307      1.6156      1.4864      1.3486      1.2095      1.0773     0.96010     0.86416    
 0.79363     0.75070     0.71933     0.73511     0.78168     0.85680     0.95706      1.0779      1.2134      1.3566    
  1.4999      1.6356      1.7571      1.8588      1.9356      1.9836      2.0000      1.9836      1.9356      1.8588    
  1.7571      1.6356      1.4999      1.3566      1.2134      1.0779     0.95706     0.85680     0.78168     0.73511    
 0.70242     0.71958     0.76984     0.84998     0.95552      1.0814      1.2220      1.3709      1.5210      1.6642    
  1.7926      1.8994      1.9791      2.0283      2.0449      2.0283      1.9791      1.8994      1.7926      1.6642    
  1.5210      1.3709      1.2220      1.0814     0.95552     0.84998     0.76984     0.71958     0.68621     0.70443    
 0.75782     0.84287     0.95464      1.0876      1.2357      1.3925      1.5506      1.7014      1.8364      1.9478    
  2.0302      2.0804      2.0972      2.0804      2.0302      1.9478      1.8364      1.7014      1.5506      1.3925    
  1.2357      1.0876     0.95464     0.84287     0.75782     0.70443     0.67132     0.69017     0.74581     0.83542    
 0.95441      1.0967      1.2553      1.4224      1.5895      1.7479      1.8885      2.0037      2.0882      2.1394    
  2.1565      2.1394      2.0882      2.0037      1.8885      1.7479      1.5895      1.4224      1.2553      1.0967    
 0.95441     0.83542     0.74581     0.69017     0.66149     0.68058     0.73765     0.83140     0.95828      1.1118    
  1.2831      1.4621      1.6389      1.8041      1.9491      2.0671      2.1532      2.2053      2.2226      2.2053    
  2.1532      2.0671      1.9491      1.8041      1.6389      1.4621      1.2831      1.1118     0.95828     0.83140    
 0.73765     0.68058     0.66236     0.68153     0.73964     0.83725     0.97207      1.1371      1.3215      1.5124    
  1.6982      1.8692      2.0175      2.1373      2.2244      2.2769      2.2944      2.2769      2.2244      2.1373    
  2.0175      1.8692      1.6982      1.5124      1.3215      1.1371     0.97207     0.83725     0.73964     0.68153    
 0.67609     0.69552     0.75509     0.85677     0.99910      1.1744      1.3698      1.5706      1.7637      1.9394    
  2.0905      2.2115      2.2990      2.3515      2.3690      2.3515      2.2990      2.2115      2.0905      1.9394    
  1.7637      1.5706      1.3698      1.1744     0.99910     0.85677     0.75509     0.69552     0.69741     0.71770    
 0.78006     0.88675      1.0360      1.2192      1.4221      1.6294      1.8279      2.0080      2.1622      2.2848    
  2.3725      2.4245      2.4416      2.4245      2.3725      2.2848      2.1622      2.0080      1.8279      1.6294    
  1.4221      1.2192      1.0360     0.88675     0.78006     0.71770     0.71638     0.73832     0.80524     0.91822    
  1.0739      1.2624      1.4692      1.6798      1.8822      2.0669      2.2253      2.3506      2.4388      2.4900    
  2.5066      2.4900      2.4388      2.3506      2.2253      2.0669      1.8822      1.6798      1.4692      1.2624    
  1.0739     0.91822     0.80524     0.73832     0.72604     0.75014     0.82266     0.94245      1.1038      1.2954    
  1.5035      1.7154      1.9208      2.1103      2.2739      2.4025      2.4915      2.5420      2.5581      2.5420    
  2.4915      2.4025      2.2739      2.1103      1.9208      1.7154      1.5035      1.2954      1.1038     0.94245    
 0.82266     0.75014     0.72747     0.75346     0.83075     0.95601      1.1213      1.3146      1.5228      1.7350    
  1.9425      2.1360      2.3039      2.4356      2.5255      2.5755      2.5912      2.5755      2.5255      2.4356    
  2.3039      2.1360      1.9425      1.7350      1.5228      1.3146      1.1213     0.95601     0.83075     0.75346    
 0.72681     0.75356     0.83273     0.96011      1.1269      1.3207      1.5287      1.7410      1.9493      2.1443    
  2.3141      2.4469      2.5372      2.5871      2.6026      2.5871      2.5372      2.4469      2.3141      2.1443    
  1.9493      1.7410      1.5287      1.3207      1.1269     0.96011     0.83273     0.75356     0.72747     0.75346    
 0.83075     0.95601      1.1213      1.3146      1.5228      1.7350      1.9425      2.1360      2.3039      2.4356    
  2.5255      2.5755      2.5912      2.5755      2.5255      2.4356      2.3039      2.1360      1.9425      1.7350    
  1.5228      1.3146      1.1213     0.95601     0.83075     0.75346     0.72604     0.75014     0.82266     0.94245    
  1.1038      1.2954      1.5035      1.7154      1.9208      2.1103      2.2739      2.4025      2.4915      2.5420    
  2.5581      2.5420      2.4915      2.4025      2.2739      2.1103      1.9208      1.7154      1.5035      1.2954    
  1.1038     0.94245     0.82266     0.75014     0.71638     0.73832     0.80524     0.91822      1.0739      1.2624    
  1.4692      1.6798      1.8822      2.0669      2.2253      2.3506      2.4388      2.4900      2.5066      2.4900    
  2.4388      2.3506      2.2253      2.0669      1.8822      1.6798      1.4692      1.2624      1.0739     0.91822    
 0.80524     0.73832     0.69741     0.71770     0.78006     0.88675      1.0360      1.2192      1.4221      1.6294    
  1.8279      2.0080      2.1622      2.2848      2.3725      2.4245      2.4416      2.4245      2.3725      2.2848    
  2.1622      2.0080      1.8279      1.6294      1.4221      1.2192      1.0360     0.88675     0.78006     0.71770    
 0.67609     0.69552     0.75509     0.85677     0.99910      1.1744      1.3698      1.5706      1.7637      1.9394    
  2.0905      2.2115      2.2990      2.3515      2.3690      2.3515      2.2990      2.2115      2.0905      1.9394    
  1.7637      1.5706      1.3698      1.1744     0.99910     0.85677     0.75509     0.69552     0.66236     0.68153    
 0.73964     0.83725     0.97207      1.1371      1.3215      1.5124      1.6982      1.8692      2.0175      2.1373    
  2.2244      2.2769      2.2944      2.2769      2.2244      2.1373      2.0175      1.8692      1.6982      1.5124    
  1.3215      1.1371     0.97207     0.83725     0.73964     0.68153     0.66149     0.68058     0.73765     0.83140    
 0.95828      1.1118      1.2831      1.4621      1.6389      1.8041      1.9491      2.0671      2.1532      2.2053    
  2.2226      2.2053      2.1532      2.0671      1.9491      1.8041      1.6389      1.4621      1.2831      1.1118    
 0.95828     0.83140     0.73765     0.68058     0.67132     0.69017     0.74581     0.83542     0.95441      1.0967    
  1.2553      1.4224      1.5895      1.7479      1.8885      2.0037      2.0882      2.1394      2.1565      2.1394    
  2.0882      2.0037      1.8885      1.7479      1.5895      1.4224      1.2553      1.0967     0.95441     0.83542    
 0.74581     0.69017     0.68621     0.70443     0.75782     0.84287     0.95464      1.0876      1.2357      1.3925    
  1.5506      1.7014      1.8364      1.9478      2.0302      2.0804      2.0972      2.0804      2.0302      1.9478    
  1.8364      1.7014      1.5506      1.3925      1.2357      1.0876     0.95464     0.84287     0.75782     0.70443    
 0.70242     0.71958     0.76984     0.84998     0.95552      1.0814      1.2220      1.3709      1.5210      1.6642    
  1.7926      1.8994      1.9791      2.0283      2.0449      2.0283      1.9791      1.8994      1.7926      1.6642    
  1.5210      1.3709      1.2220      1.0814     0.95552     0.84998     0.76984     0.71958     0.71933     0.73511    
 0.78168     0.85680     0.95706      1.0779      1.2134      1.3566      1.4999      1.6356      1.7571      1.8588    
  1.9356      1.9836      2.0000      1.9836      1.9356      1.8588      1.7571      1.6356      1.4999      1.3566    
  1.2134      1.0779     0.95706     0.85680     0.78168     0.73511     0.73631     0.75070     0.79363     0.86416    
 0.96010      1.0773      1.2095      1.3486      1.4864      1.6156      1.7307      1.8274      1.9014      1.9483    
  1.9644      1.9483      1.9014      1.8274      1.7307      1.6156      1.4864      1.3486      1.2095      1.0773    
 0.96010     0.86416     0.79363     0.75070     0.74993     0.76327     0.80351     0.87071     0.96367      1.0786    
  1.2087      1.3452      1.4792      1.6037      1.7143      1.8074      1.8793      1.9253      1.9412      1.9253    
  1.8793      1.8074      1.7143      1.6037      1.4792      1.3452      1.2087      1.0786     0.96367     0.87071    
 0.80351     0.76327     0.73419     0.74861     0.79174     0.86293     0.96021      1.0794      1.2138      1.3550    
  1.4942      1.6243      1.7400      1.8371      1.9113      1.9584      1.9745      1.9584      1.9113      1.8371    
  1.7400      1.6243      1.4942      1.3550      1.2138      1.0794     0.96021     0.86293     0.79174     0.74861    
 0.73025     0.74502     0.78906     0.86126     0.95928      1.0788      1.2134      1.3550      1.4953      1.6269    
  1.7441      1.8424      1.9174      1.9647      1.9809      1.9647      1.9174      1.8424      1.7441      1.6269    
  1.4953      1.3550      1.2134      1.0788     0.95928     0.86126     0.78906     0.74502     0.71933     0.73511    
 0.78168     0.85680     0.95706      1.0779      1.2134      1.3566      1.4999      1.6356      1.7571      1.8588    
  1.9356      1.9836      2.0000      1.9836      1.9356      1.8588      1.7571      1.6356      1.4999      1.3566    
  1.2134      1.0779     0.95706     0.85680     0.78168     0.73511     0.70362     0.72084     0.77107     0.85066    
 0.95478      1.0784      1.2164      1.3629      1.5110      1.6529      1.7806      1.8869      1.9664      2.0154    