unknown system                          
   1.0000000000000000     
     3.325000    0.000000    0.000000
     0.000000    3.325000    0.000000
     0.000000    0.000000    3.325000
   H    Be
     2     1
Direct
  0.900000  0.500000  0.500000
  0.100000  0.500000  0.500000
  0.500000  0.500000  0.500000

   28   28   28
 0.78135     0.79264     0.82740     0.88744     0.97330      1.0820      1.2063      1.3362      1.4622      1.5777    
  1.6796      1.7659      1.8335      1.8774      1.8927      1.8774      1.8335      1.7659      1.6796      1.5777    
  1.4622      1.3362      1.2063      1.0820     0.97330     0.88744     0.82740     0.79264     0.77304     0.78481    
 0.82085     0.88262     0.97023      1.0805      1.2063      1.3378      1.4657      1.5832      1.6870      1.7748    
  1.8433      1.8877      1.9031      1.8877      1.8433      1.7748      1.6870      1.5832      1.4657      1.3378    
  1.2063      1.0805     0.97023     0.88262     0.82085     0.78481     0.75328     0.76627     0.80558     0.87167    
 0.96372      1.0781      1.2077      1.3434      1.4761      1.5990      1.7079      1.7997      1.8707      1.9163    
  1.9321      1.9163      1.8707      1.7997      1.7079      1.5990      1.4761      1.3434      1.2077      1.0781    
 0.96372     0.87167     0.80558     0.76627     0.73233     0.74677     0.78997     0.86129     0.95873      1.0781    
  1.2127      1.3540      1.4934      1.6236      1.7392      1.8363      1.9104      1.9574      1.9736      1.9574    
  1.9104      1.8363      1.7392      1.6236      1.4934      1.3540      1.2127      1.0781     0.95873     0.86129    
 0.78997     0.74677     0.71588     0.73155     0.77815     0.85426     0.95705      1.0819      1.2221      1.3697    
  1.5163      1.6542      1.7770      1.8793      1.9565      2.0048      2.0212      2.0048      1.9565      1.8793    
  1.7770      1.6542      1.5163      1.3697      1.2221      1.0819     0.95705     0.85426     0.77815     0.73155    
 0.70231     0.71880     0.76788     0.84807     0.95628      1.0874      1.2345      1.3894      1.5437      1.6891    
  1.8184      1.9254      2.0052      2.0544      2.0710      2.0544      2.0052      1.9254      1.8184      1.6891    
  1.5437      1.3894      1.2345      1.0874     0.95628     0.84807     0.76788     0.71880     0.68895     0.70586    
 0.75656     0.84033     0.95449      1.0935      1.2496      1.4135      1.5760      1.7285      1.8634      1.9741    
  2.0561      2.1062      2.1230      2.1062      2.0561      1.9741      1.8634      1.7285      1.5760      1.4135    
  1.2496      1.0935     0.95449     0.84033     0.75656     0.70586     0.67833     0.69539     0.74713     0.83417    
 0.95474      1.1031      1.2699      1.4441      1.6154      1.7746      1.9141      2.0280      2.1116      2.1624    
  2.1795      2.1624      2.1116      2.0280      1.9141      1.7746      1.6154      1.4441      1.2699      1.1031    
 0.95474     0.83417     0.74713     0.69539     0.67651     0.69367     0.74635     0.83657     0.96358      1.1214    
  1.2990      1.4836      1.6633      1.8287      1.9724      2.0889      2.1739      2.2253      2.2424      2.2253    
  2.1739      2.0889      1.9724      1.8287      1.6633      1.4836      1.2990      1.1214     0.96358     0.83657    
 0.74635     0.69367     0.68580     0.70339     0.75775     0.85168     0.98485      1.1507      1.3372      1.5301    
  1.7170      1.8883      2.0366      2.1559      2.2422      2.2938      2.3109      2.2938      2.2422      2.1559    
  2.0366      1.8883      1.7170      1.5301      1.3372      1.1507     0.98485     0.85168     0.75775     0.70339    
 0.70104     0.71975     0.77738     0.87629      1.0154      1.1871      1.3789      1.5770      1.7696      1.9470    
  2.1010      2.2243      2.3121      2.3636      2.3804      2.3636      2.3121      2.2243      2.1010      1.9470    
  1.7696      1.5770      1.3789      1.1871      1.0154     0.87629     0.77738     0.71975     0.71355     0.73419    
 0.79688     0.90211      1.0466      1.2218      1.4155      1.6158      1.8128      1.9971      2.1586      2.2872    
  2.3771      2.4283      2.4447      2.4283      2.3771      2.2872      2.1586      1.9971      1.8128      1.6158    
  1.4155      1.2218      1.0466     0.90211     0.79688     0.73419     0.71844     0.74143     0.80998     0.92180    
  1.0708      1.2473      1.4405      1.6412      1.8419      2.0334      2.2030      2.3377      2.4298      2.4808    
  2.4967      2.4808      2.4298      2.3377      2.2030      2.0334      1.8419      1.6412      1.4405      1.2473    
  1.0708     0.92180     0.80998     0.74143     0.71765     0.74258     0.81590     0.93278      1.0848      1.2615    
  1.4533      1.6539      1.8573      2.0545      2.2307      2.3702      2.4643      2.5151      2.5306      2.5151    
  2.4643      2.3702      2.2307      2.0545      1.8573      1.6539      1.4533      1.2615      1.0848     0.93278    
 0.81590     0.74258     0.71648     0.74217     0.81734     0.93612      1.0892      1.2657      1.4570      1.6574    
  1.8619      2.0613      2.2400      2.3814      2.4762      2.5270      2.5423      2.5270      2.4762      2.3814    
  2.2400      2.0613      1.8619      1.6574      1.4570      1.2657      1.0892     0.93612     0.81734     0.74217    
 0.71765     0.74258     0.81590     0.93278      1.0848      1.2615      1.4533      1.6539      1.8573      2.0545    
  2.2307      2.3702      2.4643      2.5151      2.5306      2.5151      2.4643      2.3702      2.2307      2.0545    
  1.8573      1.6539      1.4533      1.2615      1.0848     0.93278     0.81590     0.74258     0.71844     0.74143    
 0.80998     0.92180      1.0708      1.2473      1.4405      1.6412      1.8419      2.0334      2.2030      2.3377    
  2.4298      2.4808      2.4967      2.4808      2.4298      2.3377      2.2030      2.0334      1.8419      1.6412    
  1.4405      1.2473      1.0708     0.92180     0.80998     0.74143     0.71355     0.73419     0.79688     0.90211    
  1.0466      1.2218      1.4155      1.6158      1.8128      1.9971      2.1586      2.2872      2.3771      2.4283    
  2.4447      2.4283      2.3771      2.2872      2.1586      1.9971      1.8128      1.6158      1.4155      1.2218    
  1.0466     0.90211     0.79688     0.73419     0.70104     0.71975     0.77738     0.87629      1.0154      1.1871    
  1.3789      1.5770      1.7696      1.9470      2.1010      2.2243      2.3121      2.3636      2.3804      2.3636    
  2.3121      2.2243      2.1010      1.9470      1.7696      1.5770      1.3789      1.1871      1.0154     0.87629    
 0.77738     0.71975     0.68580     0.70339     0.75775     0.85168     0.98485      1.1507      1.3372      1.5301    
  1.7170      1.8883      2.0366      2.1559      2.2422      2.2938      2.3109      2.2938      2.2422      2.1559    
  2.0366      1.8883      1.7170      1.5301      1.3372      1.1507     0.98485     0.85168     0.75775     0.70339    
 0.67651     0.69367     0.74635     0.83657     0.96358      1.1214      1.2990      1.4836      1.6633      1.8287    
  1.9724      2.0889      2.1739      2.2253      2.2424      2.2253      2.1739      2.0889      1.9724      1.8287    
  1.6633      1.4836      1.2990      1.1214     0.96358     0.83657     0.74635     0.69367     0.67833     0.69539    
 0.74713     0.83417     0.95474      1.1031      1.2699      1.4441      1.6154      1.7746      1.9141      2.0280    
  2.1116      2.1624      2.1795      2.1624      2.1116      2.0280      1.9141      1.7746      1.6154      1.4441    
  1.2699      1.1031     0.95474     0.83417     0.74713     0.69539     0.68895     0.70586     0.75656     0.84033    
 0.95449      1.0935      1.2496      1.4135      1.5760      1.7285      1.8634      1.9741      2.0561      2.1062    
  2.1230      2.1062      2.0561      1.9741      1.8634      1.7285      1.5760      1.4135      1.2496      1.0935    
 0.95449     0.84033     0.75656     0.70586     0.70231     0.71880     0.76788     0.84807     0.95628      1.0874    
  1.2345      1.3894      1.5437      1.6891      1.8184      1.9254      2.0052      2.0544      2.0710      2.0544    
  2.0052      1.9254      1.8184      1.6891      1.5437      1.3894      1.2345      1.0874     0.95628     0.84807    
 0.76788     0.71880     0.71588     0.73155     0.77815     0.85426     0.95705      1.0819      1.2221      1.3697    
  1.5163      1.6542      1.7770      1.8793      1.9565      2.0048      2.0212      2.0048      1.9565      1.8793    
  1.7770      1.6542      1.5163      1.3697      1.2221      1.0819     0.95705     0.85426     0.77815     0.73155    
 0.73233     0.74677     0.78997     0.86129     0.95873      1.0781      1.2127      1.3540      1.4934      1.6236    
  1.7392      1.8363      1.9104      1.9574      1.9736      1.9574      1.9104      1.8363      1.7392      1.6236    
  1.4934      1.3540      1.2127      1.0781     0.95873     0.86129     0.78997     0.74677     0.75328     0.76627    
 0.80558     0.87167     0.96372      1.0781      1.2077      1.3434      1.4761      1.5990      1.7079      1.7997    
  1.8707      1.9163      1.9321      1.9163      1.8707      1.7997      1.7079      1.5990      1.4761      1.3434    
  1.2077      1.0781     0.96372     0.87167     0.80558     0.76627     0.77304     0.78481     0.82085     0.88262    
 0.97023      1.0805      1.2063      1.3378      1.4657      1.5832      1.6870      1.7748      1.8433      1.8877    
  1.9031      1.8877      1.8433      1.7748      1.6870      1.5832      1.4657      1.3378      1.2063      1.0805    
 0.97023     0.88262     0.82085     0.78481     0.77304     0.78481     0.82085     0.88262     0.97023      1.0805    
  1.2063      1.3378      1.4657      1.5832      1.6870      1.7748      1.8433      1.8877      1.9031      1.8877    
  1.8433      1.7748      1.6870      1.5832      1.4657      1.3378      1.2063      1.0805     0.97023     0.88262    
 0.82085     0.78481     0.76569     0.77791     0.81515     0.87847     0.96764      1.0793      1.2063      1.3392    
  1.4688      1.5882      1.6938      1.7831      1.8525      1.8973      1.9129      1.8973      1.8525      1.7831    
  1.6938      1.5882      1.4688      1.3392      1.2063      1.0793     0.96764     0.87847     0.81515     0.77791    
 0.74795     0.76132     0.80164     0.86897     0.96210      1.0772      1.2076      1.3442      1.4783      1.6029    
  1.7135      1.8066      1.8784      1.9243      1.9402      1.9243      1.8784      1.8066      1.7135      1.6029    
  1.4783      1.3442      1.2076      1.0772     0.96210     0.86897     0.80164     0.76132     0.72836     0.74316    
 0.78727     0.85961     0.95779      1.0775      1.2123      1.3541      1.4945      1.6262      1.7434      1.8416    
  1.9165      1.9637      1.9800      1.9637      1.9165      1.8416      1.7434      1.6262      1.4945      1.3541    
  1.2123      1.0775     0.95779     0.85961     0.78727     0.74316     0.71191     0.72798     0.77556     0.85274    
 0.95621      1.0812      1.2214      1.3693      1.5168      1.6561      1.7804      1.8838      1.9617      2.0102    
  2.0266      2.0102      1.9617      1.8838      1.7804      1.6561      1.5168      1.3693      1.2214      1.0812    
 0.95621     0.85274     0.77556     0.72798     0.69768     0.71463     0.76485     0.84631     0.95540      1.0869    
  1.2342      1.3895      1.5447      1.6915      1.8223      1.9304      2.0108      2.0603      2.0770      2.0603    
  2.0108      1.9304      1.8223      1.6915      1.5447      1.3895      1.2342      1.0869     0.95540     0.84631    
 0.76485     0.71463     0.68387     0.70130     0.75329     0.83858     0.95394      1.0938      1.2504      1.4150    
  1.5787      1.7327      1.8691      1.9810      2.0636      2.1139      2.1308      2.1139      2.0636      1.9810    
  1.8691      1.7327      1.5787      1.4150      1.2504      1.0938     0.95394     0.83858     0.75329     0.70130    
 0.67312     0.69071     0.74386     0.83265     0.95487      1.1045      1.2725      1.4480      1.6206      1.7814    
  1.9224      2.0373      2.1216      2.1727      2.1899      2.1727      2.1216      2.0373      1.9224      1.7814    
  1.6206      1.4480      1.2725      1.1045     0.95487     0.83265     0.74386     0.69071     0.67098     0.68869    
 0.74287     0.83514     0.96432      1.1241      1.3036      1.4900      1.6713      1.8382      1.9832      2.1006    
  2.1862      2.2379      2.2551      2.2379      2.1862      2.1006      1.9832      1.8382      1.6713      1.4900    
  1.3036      1.1241     0.96432     0.83514     0.74287     0.68869     0.67947     0.69762     0.75358     0.84989    
 0.98587      1.1546      1.3438      1.5390      1.7277      1.9004      2.0495      2.1694      2.2561      2.3080    
  2.3252      2.3080      2.2561      2.1694      2.0495      1.9004      1.7277      1.5390      1.3438      1.1546    
 0.98587     0.84989     0.75358     0.69762     0.69339     0.71268     0.77203     0.87370      1.0163      1.1918    
  1.3872      1.5883      1.7828      1.9612      2.1155      2.2389      2.3268      2.3786      2.3955      2.3786    
  2.3268      2.2389      2.1155      1.9612      1.7828      1.5883      1.3872      1.1918      1.0163     0.87370    
 0.77203     0.71268     0.70406     0.72532     0.78989     0.89831      1.0471      1.2270      1.4252      1.6291    
  1.8282      2.0131      2.1741      2.3022      2.3919      2.4433      2.4598      2.4433      2.3919      2.3022    
  2.1741      2.0131      1.8282      1.6291      1.4252      1.2270      1.0471     0.89831     0.78989     0.72532    
 0.70666     0.73031     0.80098     0.91647      1.0706      1.2528      1.4514      1.6562      1.8590      2.0506    
  2.2191      2.3526      2.4443      2.4955      2.5116      2.4955      2.4443      2.3526      2.2191      2.0506    
  1.8590      1.6562      1.4514      1.2528      1.0706     0.91647     0.80098     0.73031     0.70377     0.72943    
 0.80508     0.92607      1.0838      1.2669      1.4649      1.6699      1.8755      2.0724      2.2470      2.3849    
  2.4784      2.5294      2.5451      2.5294      2.4784      2.3849      2.2470      2.0724      1.8755      1.6699    
  1.4649      1.2669      1.0838     0.92607     0.80508     0.72943     0.70172     0.72817     0.80576     0.92883    
  1.0878      1.2712      1.4688      1.6738      1.8804      2.0794      2.2563      2.3960      2.4902      2.5411    
  2.5567      2.5411      2.4902      2.3960      2.2563      2.0794      1.8804      1.6738      1.4688      1.2712    
  1.0878     0.92883     0.80576     0.72817     0.70377     0.72943     0.80508     0.92607      1.0838      1.2669    
  1.4649      1.6699      1.8755      2.0724      2.2470      2.3849      2.4784      2.5294      2.5451      2.5294    
  2.4784      2.3849      2.2470      2.0724      1.8755      1.6699      1.4649      1.2669      1.0838     0.92607    
 0.80508     0.72943     0.70666     0.73031     0.80098     0.91647      1.0706      1.2528      1.4514      1.6562    
  1.8590      2.0506      2.2191      2.3526      2.4443      2.4955      2.5116      2.4955      2.4443      2.3526    
  2.2191      2.0506      1.8590      1.6562      1.4514      1.2528      1.0706     0.91647     0.80098     0.73031    
 0.70406     0.72532     0.78989     0.89831      1.0471      1.2270      1.4252      1.6291      1.8282      2.0131    
  2.1741      2.3022      2.3919      2.4433      2.4598      2.4433      2.3919      2.3022      2.1741      2.0131    
  1.8282      1.6291      1.4252      1.2270      1.0471     0.89831     0.78989     0.72532     0.69339     0.71268    
 0.77203     0.87370      1.0163      1.1918      1.3872      1.5883      1.7828      1.9612      2.1155      2.2389    
  2.3268      2.3786      2.3955      2.3786      2.3268      2.2389      2.1155      1.9612      1.7828      1.5883    
  1.3872      1.1918      1.0163     0.87370     0.77203     0.71268     0.67947     0.69762     0.75358     0.84989    
 0.98587      1.1546      1.3438      1.5390      1.7277      1.9004      2.0495      2.1694      2.2561      2.3080    
  2.3252      2.3080      2.2561      2.1694      2.0495      1.9004      1.7277      1.5390      1.3438      1.1546    
 0.98587     0.84989     0.75358     0.69762     0.67098     0.68869     0.74287     0.83514     0.96432      1.1241    
  1.3036      1.4900      1.6713      1.8382      1.9832      2.1006      2.1862      2.2379      2.2551      2.2379    
  2.1862      2.1006      1.9832      1.8382      1.6713      1.4900      1.3036      1.1241     0.96432     0.83514    
 0.74287     0.68869     0.67312     0.69071     0.74386     0.83265     0.95487      1.1045      1.2725      1.4480    
  1.6206      1.7814      1.9224      2.0373      2.1216      2.1727      2.1899      2.1727      2.1216      2.0373    
  1.9224      1.7814      1.6206      1.4480      1.2725      1.1045     0.95487     0.83265     0.74386     0.69071    
 0.68387     0.70130     0.75329     0.83858     0.95394      1.0938      1.2504      1.4150      1.5787      1.7327    
  1.8691      1.9810      2.0636      2.1139      2.1308      2.1139      2.0636      1.9810      1.8691      1.7327    
  1.5787      1.4150      1.2504      1.0938     0.95394     0.83858     0.75329     0.70130     0.69768     0.71463    
 0.76485     0.84631     0.95540      1.0869      1.2342      1.3895      1.5447      1.6915      1.8223      1.9304    
  2.0108      2.0603      2.0770      2.0603      2.0108      1.9304      1.8223      1.6915      1.5447      1.3895    
  1.2342      1.0869     0.95540     0.84631     0.76485     0.71463     0.71191     0.72798     0.77556     0.85274    
 0.95621      1.0812      1.2214      1.3693      1.5168      1.6561      1.7804      1.8838      1.9617      2.0102    
  2.0266      2.0102      1.9617      1.8838      1.7804      1.6561      1.5168      1.3693      1.2214      1.0812    
 0.95621     0.85274     0.77556     0.72798     0.72836     0.74316     0.78727     0.85961     0.95779      1.0775    
  1.2123      1.3541      1.4945      1.6262      1.7434      1.8416      1.9165      1.9637      1.9800      1.9637    
  1.9165      1.8416      1.7434      1.6262      1.4945      1.3541      1.2123      1.0775     0.95779     0.85961    
 0.78727     0.74316     0.74795     0.76132     0.80164     0.86897     0.96210      1.0772      1.2076      1.3442    
  1.4783      1.6029      1.7135      1.8066      1.8784      1.9243      1.9402      1.9243      1.8784      1.8066    
  1.7135      1.6029      1.4783      1.3442      1.2076      1.0772     0.96210     0.86897     0.80164     0.76132    
 0.76569     0.77791     0.81515     0.87847     0.96764      1.0793      1.2063      1.3392      1.4688      1.5882    
  1.6938      1.7831      1.8525      1.8973      1.9129      1.8973      1.8525      1.7831      1.6938      1.5882    
  1.4688      1.3392      1.2063      1.0793     0.96764     0.87847     0.81515     0.77791     0.75328     0.76627    
 0.80558     0.87167     0.96372      1.0781      1.2077      1.3434      1.4761      1.5990      1.7079      1.7997    
  1.8707      1.9163      1.9321      1.9163      1.8707      1.7997      1.7079      1.5990      1.4761      1.3434    
  1.2077      1.0781     0.96372     0.87167     0.80558     0.76627     0.74795     0.76132     0.80164     0.86897    
 0.96210      1.0772      1.2076      1.3442      1.4783      1.6029      1.7135      1.8066      1.8784      1.9243    
  1.9402      1.9243      1.8784      1.8066      1.7135      1.6029      1.4783      1.3442      1.2076      1.0772    
 0.96210     0.86897     0.80164     0.76132     0.73434     0.74876     0.79177     0.86244     0.95856      1.0760    
  1.2084      1.3477      1.4855      1.6148      1.7299      1.8266      1.9006      1.9474      1.9635      1.9474    
  1.9006      1.8266      1.7299      1.6148      1.4855      1.3477      1.2084      1.0760     0.95856     0.86244    
 0.79177     0.74876     0.71741     0.73322     0.77986     0.85512     0.95556      1.0766      1.2123      1.3557    
  1.4991      1.6349      1.7564      1.8580      1.9348      1.9827      1.9991      1.9827      1.9348      1.8580    
  1.7564      1.6349      1.4991      1.3557      1.2123      1.0766     0.95556     0.85512     0.77986     0.73322    
 0.70060     0.71778     0.76812     0.84840     0.95411      1.0802      1.2210      1.3701      1.5203      1.6636    
  1.7920      1.8987      1.9783      2.0274      2.0440      2.0274      1.9783      1.8987      1.7920      1.6636    
  1.5203      1.3701      1.2210      1.0802     0.95411     0.84840     0.76812     0.71778     0.68453     0.70278    
 0.75624     0.84141     0.95336      1.0865      1.2348      1.3918      1.5500      1.7009      1.8359      1.9472    
  2.0295      2.0796      2.0964      2.0796      2.0295      1.9472      1.8359      1.7009      1.5500      1.3918    
  1.2348      1.0865     0.95336     0.84141     0.75624     0.70278     0.66979     0.68866     0.74437     0.83410    
 0.95326      1.0958      1.2546      1.4218      1.5891      1.7475      1.8881      2.0032      2.0876      2.1387    
  2.1558      2.1387      2.0876      2.0032      1.8881      1.7475      1.5891      1.4218      1.2546      1.0958    
 0.95326     0.83410     0.74437     0.68866     0.66009     0.67920     0.73633     0.83021     0.95726      1.1110    
  1.2825      1.4617      1.6386      1.8038      1.9488      2.0667      2.1527      2.2046      2.2220      2.2046    
  2.1527      2.0667      1.9488      1.8038      1.6386      1.4617      1.2825      1.1110     0.95726     0.83021    
 0.73633     0.67920     0.66109     0.68027     0.73845     0.83618     0.97119      1.1365      1.3211      1.5122    
  1.6981      1.8691      2.0174      2.1370      2.2239      2.2764      2.2938      2.2764      2.2239      2.1370    
  2.0174      1.8691      1.6981      1.5122      1.3211      1.1365     0.97119     0.83618     0.73845     0.68027    
 0.67501     0.69445     0.75406     0.85586     0.99838      1.1740      1.3696      1.5705      1.7637      1.9394    
  2.0904      2.2114      2.2987      2.3511      2.3685      2.3511      2.2987      2.2114      2.0904      1.9394    
  1.7637      1.5705      1.3696      1.1740     0.99838     0.85586     0.75406     0.69445     0.69662     0.71691    
 0.77930     0.88608      1.0355      1.2189      1.4221      1.6294      1.8280      2.0081      2.1622      2.2847    
  2.3723      2.4241      2.4412      2.4241      2.3723      2.2847      2.1622      2.0081      1.8280      1.6294    
  1.4221      1.2189      1.0355     0.88608     0.77930     0.71691     0.71598     0.73792     0.80484     0.91786    
  1.0737      1.2623      1.4692      1.6799      1.8824      2.0670      2.2255      2.3506      2.4386      2.4897    
  2.5062      2.4897      2.4386      2.3506      2.2255      2.0670      1.8824      1.6799      1.4692      1.2623    
  1.0737     0.91786     0.80484     0.73792     0.72606     0.75015     0.82264     0.94243      1.1038      1.2955    
  1.5036      1.7156      1.9210      2.1105      2.2740      2.4025      2.4914      2.5417      2.5577      2.5417    
  2.4914      2.4025      2.2740      2.1105      1.9210      1.7156      1.5036      1.2955      1.1038     0.94243    
 0.82264     0.75015     0.72782     0.75379     0.83103     0.95625      1.1215      1.3148      1.5230      1.7352    
  1.9427      2.1362      2.3041      2.4356      2.5254      2.5752      2.5909      2.5752      2.5254      2.4356    
  2.3041      2.1362      1.9427      1.7352      1.5230      1.3148      1.1215     0.95625     0.83103     0.75379    
 0.72729     0.75401     0.83312     0.96044      1.1272      1.3209      1.5290      1.7412      1.9496      2.1446    
  2.3142      2.4470      2.5371      2.5868      2.6023      2.5868      2.5371      2.4470      2.3142      2.1446    
  1.9496      1.7412      1.5290      1.3209      1.1272     0.96044     0.83312     0.75401     0.72782     0.75379    
 0.83103     0.95625      1.1215      1.3148      1.5230      1.7352      1.9427      2.1362      2.3041      2.4356    
  2.5254      2.5752      2.5909      2.5752      2.5254      2.4356      2.3041      2.1362      1.9427      1.7352    
  1.5230      1.3148      1.1215     0.95625     0.83103     0.75379     0.72606     0.75015     0.82264     0.94243    
  1.1038      1.2955      1.5036      1.7156      1.9210      2.1105      2.2740      2.4025      2.4914      2.5417    
  2.5577      2.5417      2.4914      2.4025      2.2740      2.1105      1.9210      1.7156      1.5036      1.2955    
  1.1038     0.94243     0.82264     0.75015     0.71598     0.73792     0.80484     0.91786      1.0737      1.2623    
  1.4692      1.6799      1.8824      2.0670      2.2255      2.3506      2.4386      2.4897      2.5062      2.4897    
  2.4386      2.3506      2.2255      2.0670      1.8824      1.6799      1.4692      1.2623      1.0737     0.91786    
 0.80484     0.73792     0.69662     0.71691     0.77930     0.88608      1.0355      1.2189      1.4221      1.6294    
  1.8280      2.0081      2.1622      2.2847      2.3723      2.4241      2.4412      2.4241      2.3723      2.2847    
  2.1622      2.0081      1.8280      1.6294      1.4221      1.2189      1.0355     0.88608     0.77930     0.71691    
 0.67501     0.69445     0.75406     0.85586     0.99838      1.1740      1.3696      1.5705      1.7637      1.9394    
  2.0904      2.2114      2.2987      2.3511      2.3685      2.3511      2.2987      2.2114      2.0904      1.9394    
  1.7637      1.5705      1.3696      1.1740     0.99838     0.85586     0.75406     0.69445     0.66109     0.68027    
 0.73845     0.83618     0.97119      1.1365      1.3211      1.5122      1.6981      1.8691      2.0174      2.1370    
  2.2239      2.2764      2.2938      2.2764      2.2239      2.1370      2.0174      1.8691      1.6981      1.5122    
  1.3211      1.1365     0.97119     0.83618     0.73845     0.68027     0.66009     0.67920     0.73633     0.83021    
 0.95726      1.1110      1.2825      1.4617      1.6386      1.8038      1.9488      2.0667      2.1527      2.2046    
  2.2220      2.2046      2.1527      2.0667      1.9488      1.8038      1.6386      1.4617      1.2825      1.1110    
 0.95726     0.83021     0.73633     0.67920     0.66979     0.68866     0.74437     0.83410     0.95326      1.0958    
  1.2546      1.4218      1.5891      1.7475      1.8881      2.0032      2.0876      2.1387      2.1558      2.1387    
  2.0876      2.0032      1.8881      1.7475      1.5891      1.4218      1.2546      1.0958     0.95326     0.83410    
 0.74437     0.68866     0.68453     0.70278     0.75624     0.84141     0.95336      1.0865      1.2348      1.3918    
  1.5500      1.7009      1.8359      1.9472      2.0295      2.0796      2.0964      2.0796      2.0295      1.9472    
  1.8359      1.7009      1.5500      1.3918      1.2348      1.0865     0.95336     0.84141     0.75624     0.70278    
 0.70060     0.71778     0.76812     0.84840     0.95411      1.0802      1.2210      1.3701      1.5203      1.6636    
  1.7920      1.8987      1.9783      2.0274      2.0440      2.0274      1.9783      1.8987      1.7920      1.6636    
  1.5203      1.3701      1.2210      1.0802     0.95411     0.84840     0.76812     0.71778     0.71741     0.73322    
 0.77986     0.85512     0.95556      1.0766      1.2123      1.3557      1.4991      1.6349      1.7564      1.8580    
  1.9348      1.9827      1.9991      1.9827      1.9348      1.8580      1.7564      1.6349      1.4991      1.3557    
  1.2123      1.0766     0.95556     0.85512     0.77986     0.73322     0.73434     0.74876     0.79177     0.86244    
 0.95856      1.0760      1.2084      1.3477      1.4855      1.6148      1.7299      1.8266      1.9006      1.9474    
  1.9635      1.9474      1.9006      1.8266      1.7299      1.6148      1.4855      1.3477      1.2084      1.0760    
 0.95856     0.86244     0.79177     0.74876     0.74795     0.76132     0.80164     0.86897     0.96210      1.0772    
  1.2076      1.3442      1.4783      1.6029      1.7135      1.8066      1.8784      1.9243      1.9402      1.9243    
  1.8784      1.8066      1.7135      1.6029      1.4783      1.3442      1.2076      1.0772     0.96210     0.86897    
 0.80164     0.76132     0.73233     0.74677     0.78997     0.86129     0.95873      1.0781      1.2127      1.3540    
  1.4934      1.6236      1.7392      1.8363      1.9104      1.9574      1.9736      1.9574      1.9104      1.8363    
  1.7392      1.6236      1.4934      1.3540      1.2127      1.0781     0.95873     0.86129     0.78997     0.74677    
 0.72836     0.74316     0.78727     0.85961     0.95779      1.0775      1.2123      1.3541      1.4945      1.6262    
  1.7434      1.8416      1.9165      1.9637      1.9800      1.9637      1.9165      1.8416      1.7434      1.6262    
  1.4945      1.3541      1.2123      1.0775     0.95779     0.85961     0.78727     0.74316     0.71741     0.73322    
 0.77986     0.85512     0.95556      1.0766      1.2123      1.3557      1.4991      1.6349      1.7564      1.8580    
  1.9348      1.9827      1.9991      1.9827      1.9348      1.8580      1.7564      1.6349      1.4991      1.3557    
  1.2123      1.0766     0.95556     0.85512     0.77986     0.73322     0.70170     0.71895     0.76927     0.84899    
 0.95331      1.0772      1.2154      1.3620      1.5103      1.6522      1.7799      1.8862      1.9656      2.0146    