unknown system                          
   1.0000000000000000     
     3.325000    0.000000    0.000000
     0.000000    3.325000    0.000000
     0.000000    0.000000    3.325000
   H    Be
     2     1
Direct
  0.836178  0.500000  0.500000
  0.163822  0.500000  0.500000
  0.500000  0.500000  0.500000

   28   28   28
 0.23448527560E+00 0.23473064637E+00 0.23706613145E+00 0.24486467619E+00 0.26039561553E+00
 0.28305989704E+00 0.30965967828E+00 0.33547859997E+00 0.35494190227E+00 0.36233969215E+00
 0.35383686236E+00 0.33046272462E+00 0.29974430111E+00 0.27371267437E+00 0.26352356408E+00
 0.27371267483E+00 0.29974430201E+00 0.33046272591E+00 0.35383686398E+00 0.36233969402E+00
 0.35494190430E+00 0.33547860206E+00 0.30965968031E+00 0.28305989892E+00 0.26039561716E+00
 0.24486467749E+00 0.23706613236E+00 0.23473064683E+00 0.24095694532E+00 0.24205928964E+00
 0.24666031317E+00 0.25736245993E+00 0.27551837811E+00 0.29974740526E+00 0.32637223408E+00
 0.35061199992E+00 0.36730775932E+00 0.37154907262E+00 0.36036223123E+00 0.33530512929E+00
 0.30390165070E+00 0.27777716736E+00 0.26762296972E+00 0.27777716782E+00 0.30390165161E+00
 0.33530513060E+00 0.36036223287E+00 0.37154907451E+00 0.36730776137E+00 0.35061200202E+00
 0.32637223612E+00 0.29974740714E+00 0.27551837975E+00 0.25736246124E+00 0.24666031408E+00
 0.24205929011E+00 0.25886706031E+00 0.26230497925E+00 0.27308762469E+00 0.29172951341E+00
 0.31709440304E+00 0.34569277053E+00 0.37257676099E+00 0.39279544762E+00 0.40224622535E+00
 0.39806414009E+00 0.37954002109E+00 0.34971537177E+00 0.31623150544E+00 0.28970910257E+00
 0.27960250926E+00 0.28970910304E+00 0.31623150636E+00 0.34971537310E+00 0.37954002276E+00
 0.39806414201E+00 0.40224622743E+00 0.39279544976E+00 0.37257676307E+00 0.34569277246E+00
 0.31709440470E+00 0.29172951474E+00 0.27308762561E+00 0.26230497973E+00 0.28456092055E+00
 0.29113029695E+00 0.31020600783E+00 0.33953187711E+00 0.37471751234E+00 0.40958189944E+00
 0.43757009307E+00 0.45340733565E+00 0.45406890363E+00 0.43903110856E+00 0.41045532205E+00
 0.37357240626E+00 0.33657208158E+00 0.30902299418E+00 0.29881507497E+00 0.30902299467E+00
 0.33657208254E+00 0.37357240763E+00 0.41045532376E+00 0.43903111054E+00 0.45406890577E+00
 0.45340733784E+00 0.43757009522E+00 0.40958190142E+00 0.37471751406E+00 0.33953187848E+00
 0.31020600878E+00 0.29113029744E+00 0.31476329935E+00 0.32426533013E+00 0.35109666312E+00
 0.39047072173E+00 0.43522554928E+00 0.47704687349E+00 0.50800274787E+00 0.52206803312E+00
 0.51632546756E+00 0.49164807866E+00 0.45274794052E+00 0.40748723226E+00 0.36541433703E+00
 0.33570773495E+00 0.32499929882E+00 0.33570773546E+00 0.36541433803E+00 0.40748723368E+00
 0.45274794230E+00 0.49164808071E+00 0.51632546978E+00 0.52206803540E+00 0.50800275009E+00
 0.47704687554E+00 0.43522555106E+00 0.39047072315E+00 0.35109666410E+00 0.32426533064E+00
 0.34965164310E+00 0.36093408862E+00 0.39247167526E+00 0.43812537133E+00 0.48965295704E+00
 0.53817980153E+00 0.57501971663E+00 0.59258183062E+00 0.58612689776E+00 0.55591050340E+00
 0.50814876181E+00 0.45363109466E+00 0.40446836532E+00 0.37078539573E+00 0.35886778134E+00
 0.37078539626E+00 0.40446836635E+00 0.45363109614E+00 0.50814876367E+00 0.55591050555E+00
 0.58612690008E+00 0.59258183300E+00 0.57501971895E+00 0.53817980368E+00 0.48965295890E+00
 0.43812537282E+00 0.39247167629E+00 0.36093408915E+00 0.39356797934E+00 0.40508902852E+00
 0.43732515189E+00 0.48444381644E+00 0.53926300822E+00 0.59414314643E+00 0.64025229674E+00
 0.66742352816E+00 0.66683292014E+00 0.63572459653E+00 0.58052780064E+00 0.51529999275E+00
 0.45622381156E+00 0.41608334742E+00 0.40199695507E+00 0.41608334797E+00 0.45622381263E+00
 0.51529999430E+00 0.58052780259E+00 0.63572459878E+00 0.66683292258E+00 0.66742353066E+00
 0.64025229917E+00 0.59414314868E+00 0.53926301017E+00 0.48444381800E+00 0.43732515298E+00
 0.40508902908E+00 0.45111207105E+00 0.46189484171E+00 0.49237782567E+00 0.53823681483E+00
 0.59473382240E+00 0.65647305500E+00 0.71468010558E+00 0.75578748629E+00 0.76523502017E+00
 0.73554133241E+00 0.67254563366E+00 0.59412210656E+00 0.52195944007E+00 0.47291300230E+00
 0.45576151237E+00 0.47291300288E+00 0.52195944120E+00 0.59412210819E+00 0.67254563571E+00
 0.73554133477E+00 0.76523502273E+00 0.75578748892E+00 0.71468010814E+00 0.65647305737E+00
 0.59473382445E+00 0.53823681646E+00 0.49237782681E+00 0.46189484230E+00 0.52061169351E+00
 0.53107825648E+00 0.56099617337E+00 0.60731962791E+00 0.66741455625E+00 0.73776557303E+00
 0.80932377493E+00 0.86480257045E+00 0.88362830346E+00 0.85355082855E+00 0.78022223148E+00
 0.68609317220E+00 0.59902997635E+00 0.54014733362E+00 0.51967299959E+00 0.54014733424E+00
 0.59902997755E+00 0.68609317392E+00 0.78022223363E+00 0.85355083103E+00 0.88362830614E+00
 0.86480257319E+00 0.80932377761E+00 0.73776557550E+00 0.66741455840E+00 0.60731962962E+00
 0.56099617456E+00 0.53107825709E+00 0.59088316574E+00 0.60296786494E+00 0.63734668367E+00
 0.69032066872E+00 0.75916541481E+00 0.84058823267E+00 0.92455883459E+00 0.99043758100E+00
 0.10130005160E+01 0.97719117144E+00 0.89024844074E+00 0.77992797542E+00 0.67959465371E+00
 0.61297084446E+00 0.59009642481E+00 0.61297084511E+00 0.67959465496E+00 0.77992797722E+00
 0.89024844298E+00 0.97719117402E+00 0.10130005188E+01 0.99043758386E+00 0.92455883739E+00
 0.84058823525E+00 0.75916541706E+00 0.69032067051E+00 0.63734668492E+00 0.60296786558E+00
 0.64569482484E+00 0.66203387056E+00 0.70766152938E+00 0.77541741635E+00 0.85926463995E+00
 0.95374125278E+00 0.10470514466E+01 0.11162981400E+01 0.11342989581E+01 0.10864918768E+01
 0.98411597985E+00 0.86052573925E+00 0.75261486604E+00 0.68354345074E+00 0.66039382847E+00
 0.68354345141E+00 0.75261486734E+00 0.86052574112E+00 0.98411598218E+00 0.10864918794E+01
 0.11342989610E+01 0.11162981430E+01 0.10470514495E+01 0.95374125546E+00 0.85926464228E+00
 0.77541741822E+00 0.70766153069E+00 0.66203387123E+00 0.67375463395E+00 0.69637249466E+00
 0.75850234011E+00 0.84731070021E+00 0.95061260021E+00 0.10585031627E+01 0.11568584399E+01
 0.12221193897E+01 0.12282649433E+01 0.11644239739E+01 0.10476110220E+01 0.91633565862E+00
 0.80858553341E+00 0.74361540653E+00 0.72273718125E+00 0.74361540720E+00 0.80858553473E+00
 0.91633566053E+00 0.10476110244E+01 0.11644239767E+01 0.12282649463E+01 0.12221193927E+01
 0.11568584429E+01 0.10585031655E+01 0.95061260262E+00 0.84731070216E+00 0.75850234148E+00
 0.69637249537E+00 0.67654416061E+00 0.70578447814E+00 0.78537991371E+00 0.89637003139E+00
 0.10193533150E+01 0.11388584683E+01 0.12383514137E+01 0.12950601509E+01 0.12863394932E+01
 0.12066129926E+01 0.10788274931E+01 0.94549274176E+00 0.84388021594E+00 0.78751141992E+00
 0.77057271638E+00 0.78751142059E+00 0.84388021727E+00 0.94549274369E+00 0.10788274956E+01
 0.12066129954E+01 0.12863394963E+01 0.12950601540E+01 0.12383514167E+01 0.11388584711E+01
 0.10193533175E+01 0.89637003341E+00 0.78537991516E+00 0.70578447889E+00 0.66740419586E+00
 0.70162791040E+00 0.79444676710E+00 0.92229750870E+00 0.10599817739E+01 0.11873281788E+01
 0.12859560877E+01 0.13343944931E+01 0.13135244262E+01 0.12223163127E+01 0.10880607896E+01
 0.95571468396E+00 0.86131164665E+00 0.81336082995E+00 0.80011265751E+00 0.81336083061E+00
 0.86131164797E+00 0.95571468589E+00 0.10880607921E+01 0.12223163155E+01 0.13135244292E+01
 0.13343944962E+01 0.12859560907E+01 0.11873281817E+01 0.10599817765E+01 0.92229751078E+00
 0.79444676860E+00 0.70162791119E+00 0.66206383962E+00 0.69813104130E+00 0.79586298182E+00
 0.93000387099E+00 0.10731383588E+01 0.12032474048E+01 0.13012544632E+01 0.13463058919E+01
 0.13207722946E+01 0.12254022317E+01 0.10890646064E+01 0.95752688495E+00 0.86625301706E+00
 0.82177382824E+00 0.81002702473E+00 0.82177382890E+00 0.86625301837E+00 0.95752688688E+00
 0.10890646089E+01 0.12254022345E+01 0.13207722977E+01 0.13463058951E+01 0.13012544662E+01
 0.12032474076E+01 0.10731383613E+01 0.93000387308E+00 0.79586298334E+00 0.69813104211E+00
 0.66740419586E+00 0.70162791040E+00 0.79444676710E+00 0.92229750870E+00 0.10599817739E+01
 0.11873281788E+01 0.12859560877E+01 0.13343944931E+01 0.13135244262E+01 0.12223163127E+01
 0.10880607896E+01 0.95571468396E+00 0.86131164665E+00 0.81336082995E+00 0.80011265751E+00
 0.81336083061E+00 0.86131164797E+00 0.95571468589E+00 0.10880607921E+01 0.12223163155E+01
 0.13135244292E+01 0.13343944962E+01 0.12859560907E+01 0.11873281817E+01 0.10599817765E+01
 0.92229751078E+00 0.79444676860E+00 0.70162791120E+00 0.67654416061E+00 0.70578447814E+00
 0.78537991372E+00 0.89637003139E+00 0.10193533150E+01 0.11388584683E+01 0.12383514137E+01
 0.12950601509E+01 0.12863394932E+01 0.12066129926E+01 0.10788274931E+01 0.94549274176E+00
 0.84388021594E+00 0.78751141992E+00 0.77057271638E+00 0.78751142059E+00 0.84388021727E+00
 0.94549274369E+00 0.10788274956E+01 0.12066129954E+01 0.12863394963E+01 0.12950601540E+01
 0.12383514167E+01 0.11388584711E+01 0.10193533175E+01 0.89637003341E+00 0.78537991516E+00
 0.70578447889E+00 0.67375463395E+00 0.69637249466E+00 0.75850234011E+00 0.84731070021E+00
 0.95061260021E+00 0.10585031627E+01 0.11568584399E+01 0.12221193897E+01 0.12282649433E+01
 0.11644239739E+01 0.10476110220E+01 0.91633565862E+00 0.80858553341E+00 0.74361540652E+00
 0.72273718125E+00 0.74361540720E+00 0.80858553473E+00 0.91633566053E+00 0.10476110244E+01
 0.11644239767E+01 0.12282649463E+01 0.12221193927E+01 0.11568584429E+01 0.10585031655E+01
 0.95061260262E+00 0.84731070216E+00 0.75850234148E+00 0.69637249537E+00 0.64569482484E+00
 0.66203387056E+00 0.70766152939E+00 0.77541741635E+00 0.85926463995E+00 0.95374125278E+00
 0.10470514466E+01 0.11162981400E+01 0.11342989581E+01 0.10864918768E+01 0.98411597985E+00
 0.86052573925E+00 0.75261486604E+00 0.68354345073E+00 0.66039382846E+00 0.68354345141E+00
 0.75261486734E+00 0.86052574112E+00 0.98411598218E+00 0.10864918794E+01 0.11342989610E+01
 0.11162981430E+01 0.10470514495E+01 0.95374125546E+00 0.85926464228E+00 0.77541741822E+00
 0.70766153069E+00 0.66203387123E+00 0.59088316574E+00 0.60296786495E+00 0.63734668368E+00
 0.69032066872E+00 0.75916541482E+00 0.84058823267E+00 0.92455883459E+00 0.99043758100E+00
 0.10130005160E+01 0.97719117144E+00 0.89024844073E+00 0.77992797542E+00 0.67959465370E+00
 0.61297084446E+00 0.59009642481E+00 0.61297084510E+00 0.67959465496E+00 0.77992797722E+00
 0.89024844298E+00 0.97719117402E+00 0.10130005188E+01 0.99043758386E+00 0.92455883739E+00
 0.84058823525E+00 0.75916541706E+00 0.69032067051E+00 0.63734668492E+00 0.60296786558E+00
 0.52061169351E+00 0.53107825649E+00 0.56099617337E+00 0.60731962791E+00 0.66741455625E+00
 0.73776557303E+00 0.80932377493E+00 0.86480257045E+00 0.88362830346E+00 0.85355082855E+00
 0.78022223148E+00 0.68609317220E+00 0.59902997635E+00 0.54014733362E+00 0.51967299959E+00
 0.54014733423E+00 0.59902997755E+00 0.68609317392E+00 0.78022223363E+00 0.85355083103E+00
 0.88362830614E+00 0.86480257319E+00 0.80932377761E+00 0.73776557550E+00 0.66741455840E+00
 0.60731962963E+00 0.56099617456E+00 0.53107825709E+00 0.45111207105E+00 0.46189484171E+00
 0.49237782567E+00 0.53823681483E+00 0.59473382240E+00 0.65647305500E+00 0.71468010558E+00
 0.75578748629E+00 0.76523502017E+00 0.73554133241E+00 0.67254563366E+00 0.59412210656E+00
 0.52195944006E+00 0.47291300230E+00 0.45576151237E+00 0.47291300288E+00 0.52195944120E+00
 0.59412210818E+00 0.67254563571E+00 0.73554133477E+00 0.76523502273E+00 0.75578748892E+00
 0.71468010814E+00 0.65647305737E+00 0.59473382445E+00 0.53823681647E+00 0.49237782681E+00
 0.46189484230E+00 0.39356797934E+00 0.40508902852E+00 0.43732515189E+00 0.48444381644E+00
 0.53926300822E+00 0.59414314643E+00 0.64025229674E+00 0.66742352816E+00 0.66683292014E+00
 0.63572459652E+00 0.58052780064E+00 0.51529999275E+00 0.45622381155E+00 0.41608334742E+00
 0.40199695507E+00 0.41608334797E+00 0.45622381263E+00 0.51529999430E+00 0.58052780258E+00
 0.63572459878E+00 0.66683292258E+00 0.66742353066E+00 0.64025229917E+00 0.59414314868E+00
 0.53926301017E+00 0.48444381800E+00 0.43732515298E+00 0.40508902908E+00 0.34965164310E+00
 0.36093408862E+00 0.39247167526E+00 0.43812537134E+00 0.48965295704E+00 0.53817980153E+00
 0.57501971663E+00 0.59258183062E+00 0.58612689776E+00 0.55591050340E+00 0.50814876181E+00
 0.45363109466E+00 0.40446836532E+00 0.37078539573E+00 0.35886778134E+00 0.37078539626E+00
 0.40446836635E+00 0.45363109614E+00 0.50814876367E+00 0.55591050555E+00 0.58612690008E+00
 0.59258183300E+00 0.57501971895E+00 0.53817980368E+00 0.48965295890E+00 0.43812537282E+00
 0.39247167629E+00 0.36093408915E+00 0.31476329935E+00 0.32426533013E+00 0.35109666312E+00
 0.39047072173E+00 0.43522554928E+00 0.47704687349E+00 0.50800274787E+00 0.52206803312E+00
 0.51632546756E+00 0.49164807866E+00 0.45274794052E+00 0.40748723225E+00 0.36541433703E+00
 0.33570773495E+00 0.32499929881E+00 0.33570773545E+00 0.36541433802E+00 0.40748723368E+00
 0.45274794230E+00 0.49164808071E+00 0.51632546978E+00 0.52206803540E+00 0.50800275009E+00
 0.47704687554E+00 0.43522555106E+00 0.39047072315E+00 0.35109666411E+00 0.32426533064E+00
 0.28456092055E+00 0.29113029695E+00 0.31020600783E+00 0.33953187711E+00 0.37471751234E+00
 0.40958189944E+00 0.43757009307E+00 0.45340733565E+00 0.45406890363E+00 0.43903110856E+00
 0.41045532205E+00 0.37357240626E+00 0.33657208158E+00 0.30902299418E+00 0.29881507497E+00
 0.30902299467E+00 0.33657208254E+00 0.37357240763E+00 0.41045532376E+00 0.43903111054E+00
 0.45406890577E+00 0.45340733784E+00 0.43757009522E+00 0.40958190142E+00 0.37471751406E+00
 0.33953187848E+00 0.31020600878E+00 0.29113029744E+00 0.25886706032E+00 0.26230497925E+00
 0.27308762469E+00 0.29172951341E+00 0.31709440304E+00 0.34569277053E+00 0.37257676099E+00
 0.39279544762E+00 0.40224622535E+00 0.39806414009E+00 0.37954002109E+00 0.34971537177E+00
 0.31623150543E+00 0.28970910256E+00 0.27960250926E+00 0.28970910304E+00 0.31623150636E+00
 0.34971537310E+00 0.37954002276E+00 0.39806414201E+00 0.40224622743E+00 0.39279544976E+00
 0.37257676307E+00 0.34569277246E+00 0.31709440470E+00 0.29172951474E+00 0.27308762561E+00
 0.26230497973E+00 0.24095694532E+00 0.24205928964E+00 0.24666031317E+00 0.25736245993E+00
 0.27551837811E+00 0.29974740526E+00 0.32637223408E+00 0.35061199992E+00 0.36730775932E+00
 0.37154907262E+00 0.36036223123E+00 0.33530512929E+00 0.30390165070E+00 0.27777716736E+00
 0.26762296972E+00 0.27777716782E+00 0.30390165161E+00 0.33530513059E+00 0.36036223287E+00
 0.37154907451E+00 0.36730776136E+00 0.35061200202E+00 0.32637223612E+00 0.29974740714E+00
 0.27551837975E+00 0.25736246124E+00 0.24666031408E+00 0.24205929011E+00 0.24095694532E+00
 0.24205928964E+00 0.24666031317E+00 0.25736245993E+00 0.27551837811E+00 0.29974740526E+00
 0.32637223408E+00 0.35061199992E+00 0.36730775932E+00 0.37154907262E+00 0.36036223123E+00
 0.33530512929E+00 0.30390165070E+00 0.27777716736E+00 0.26762296972E+00 0.27777716782E+00
 0.30390165161E+00 0.33530513060E+00 0.36036223287E+00 0.37154907451E+00 0.36730776137E+00
 0.35061200202E+00 0.32637223612E+00 0.29974740714E+00 0.27551837975E+00 0.25736246124E+00
 0.24666031408E+00 0.24205929011E+00 0.24704352626E+00 0.24899602740E+00 0.25583844947E+00
 0.26939711624E+00 0.29011136594E+00 0.31583779182E+00 0.34245128438E+00 0.36514105721E+00
 0.37918809287E+00 0.38048199432E+00 0.36688124493E+00 0.34042078292E+00 0.30856721122E+00
 0.28250209372E+00 0.27243490361E+00 0.28250209419E+00 0.30856721213E+00 0.34042078423E+00
 0.36688124657E+00 0.38048199622E+00 0.37918809492E+00 0.36514105932E+00 0.34245128644E+00
 0.31583779372E+00 0.29011136759E+00 0.26939711756E+00 0.25583845038E+00 0.24899602787E+00
 0.26388203337E+00 0.26813318187E+00 0.28105006157E+00 0.30238402024E+00 0.33011408143E+00
 0.36003991208E+00 0.38684199390E+00 0.40562352772E+00 0.41277921936E+00 0.40623796132E+00
 0.38603979281E+00 0.35556828326E+00 0.32226959069E+00 0.29622093230E+00 0.28634412491E+00
 0.29622093277E+00 0.32226959162E+00 0.35556828460E+00 0.38603979449E+00 0.40623796325E+00
 0.41277922145E+00 0.40562352986E+00 0.38684199599E+00 0.36003991401E+00 0.33011408311E+00
 0.30238402158E+00 0.28105006251E+00 0.26813318235E+00 0.28810621246E+00 0.29540641336E+00
 0.31640246651E+00 0.34814974513E+00 0.38544571691E+00 0.42145933459E+00 0.44933686818E+00
 0.46394873896E+00 0.46283396229E+00 0.44624638997E+00 0.41698178246E+00 0.38044136756E+00
 0.34445293480E+00 0.31791944816E+00 0.30812920093E+00 0.31791944866E+00 0.34445293576E+00
 0.38044136894E+00 0.41698178419E+00 0.44624639196E+00 0.46283396445E+00 0.46394874118E+00
 0.44933687034E+00 0.42145933658E+00 0.38544571864E+00 0.34814974651E+00 0.31640246747E+00
 0.29540641385E+00 0.31690852265E+00 0.32705356218E+00 0.35559756573E+00 0.39717949469E+00
 0.44390346527E+00 0.48682360873E+00 0.51772638317E+00 0.53079490184E+00 0.52374870555E+00
 0.49824165678E+00 0.45952117171E+00 0.41546277784E+00 0.37510755074E+00 0.34687196620E+00
 0.33673772982E+00 0.34687196672E+00 0.37510755173E+00 0.41546277927E+00 0.45952117351E+00
 0.49824165885E+00 0.52374870779E+00 0.53079490414E+00 0.51772638541E+00 0.48682361080E+00
 0.44390346707E+00 0.39717949613E+00 0.35559756673E+00 0.32705356270E+00 0.35088496970E+00
 0.36280630895E+00 0.39608050055E+00 0.44405327262E+00 0.49774523176E+00 0.54757357595E+00
 0.58450281257E+00 0.60117080468E+00 0.59356712994E+00 0.56279720739E+00 0.51558750794E+00
 0.46264221917E+00 0.41547271285E+00 0.38341172721E+00 0.37211347130E+00 0.38341172775E+00
 0.41547271389E+00 0.46264222066E+00 0.51558750982E+00 0.56279720955E+00 0.59356713228E+00
 0.60117080709E+00 0.58450281491E+00 0.54757357812E+00 0.49774523364E+00 0.44405327412E+00
 0.39608050159E+00 0.36280630949E+00 0.39452124221E+00 0.40682309946E+00 0.44120075789E+00
 0.49123266193E+00 0.54885928244E+00 0.60555095435E+00 0.65198009328E+00 0.67818005337E+00
 0.67615544969E+00 0.64414233927E+00 0.58915832373E+00 0.52516880398E+00 0.46774565004E+00
 0.42894409683E+00 0.41536366232E+00 0.42894409738E+00 0.46774565113E+00 0.52516880555E+00
 0.58915832569E+00 0.64414234154E+00 0.67615545214E+00 0.67818005589E+00 0.65198009574E+00
 0.60555095662E+00 0.54885928441E+00 0.49123266351E+00 0.44120075899E+00 0.40682310002E+00
 0.45238516651E+00 0.46420524193E+00 0.49752991614E+00 0.54726552399E+00 0.60756137376E+00
 0.67189106618E+00 0.73078804012E+00 0.77079597464E+00 0.77823859023E+00 0.74677991876E+00
 0.68299688100E+00 0.60476930133E+00 0.53328025082E+00 0.48483856622E+00 0.46791591573E+00
 0.48483856681E+00 0.53328025196E+00 0.60476930298E+00 0.68299688307E+00 0.74677992115E+00
 0.77823859281E+00 0.77079597728E+00 0.73078804270E+00 0.67189106857E+00 0.60756137583E+00
 0.54726552564E+00 0.49752991729E+00 0.46420524252E+00 0.52293551732E+00 0.53469956217E+00
 0.56817508077E+00 0.61938240555E+00 0.68436473879E+00 0.75825149129E+00 0.83108263030E+00
 0.88551820777E+00 0.90181785616E+00 0.86894691350E+00 0.79343499199E+00 0.69791630046E+00
 0.60999845256E+00 0.55058273467E+00 0.52991221272E+00 0.55058273529E+00 0.60999845376E+00
 0.69791630219E+00 0.79343499415E+00 0.86894691600E+00 0.90181785887E+00 0.88551821055E+00
 0.83108263301E+00 0.75825149380E+00 0.68436474096E+00 0.61938240728E+00 0.56817508197E+00
 0.53469956279E+00 0.59537908457E+00 0.60891621091E+00 0.64730998866E+00 0.70589923525E+00
 0.78056502945E+00 0.86651318005E+00 0.95257978201E+00 0.10178283151E+01 0.10376851385E+01
 0.99823791971E+00 0.90765625242E+00 0.79407559694E+00 0.69097035938E+00 0.62234967712E+00
 0.59872808506E+00 0.62234967777E+00 0.69097036064E+00 0.79407559875E+00 0.90765625468E+00
 0.99823792232E+00 0.10376851413E+01 0.10178283180E+01 0.95257978483E+00 0.86651318267E+00
 0.78056503172E+00 0.70589923706E+00 0.64730998991E+00 0.60891621156E+00 0.65374794846E+00
 0.67155253818E+00 0.72129246034E+00 0.79497778354E+00 0.88528004061E+00 0.98520117886E+00
 0.10816063133E+01 0.11509950514E+01 0.11665432221E+01 0.11146366676E+01 0.10073892661E+01
 0.87868099117E+00 0.76592747891E+00 0.69320522727E+00 0.66867336513E+00 0.69320522794E+00
 0.76592748022E+00 0.87868099305E+00 0.10073892685E+01 0.11146366703E+01 0.11665432251E+01
 0.11509950545E+01 0.10816063162E+01 0.98520118157E+00 0.88528004297E+00 0.79497778542E+00
 0.72129246166E+00 0.67155253885E+00 0.68639517629E+00 0.71039045797E+00 0.77645496344E+00
 0.87114563596E+00 0.98121678694E+00 0.10953063457E+01 0.11977900270E+01 0.12641725110E+01
 0.12684447944E+01 0.12004326899E+01 0.10779007225E+01 0.93994344412E+00 0.82542830800E+00
 0.75518387144E+00 0.73228353147E+00 0.75518387213E+00 0.82542830934E+00 0.93994344605E+00
 0.10779007250E+01 0.12004326927E+01 0.12684447974E+01 0.12641725140E+01 0.11977900300E+01
 0.10953063485E+01 0.98121678937E+00 0.87114563792E+00 0.77645496481E+00 0.71039045868E+00
 0.69378106287E+00 0.72428135514E+00 0.80753032042E+00 0.92416386526E+00 0.10539857676E+01
 0.11802225314E+01 0.12847418237E+01 0.13435282158E+01 0.13336177172E+01 0.12499024065E+01
 0.11159499003E+01 0.97484289041E+00 0.86497201204E+00 0.80199071715E+00 0.78248781832E+00
 0.80199071785E+00 0.86497201340E+00 0.97484289238E+00 0.11159499028E+01 0.12499024093E+01
 0.13336177203E+01 0.13435282190E+01 0.12847418268E+01 0.11802225343E+01 0.10539857700E+01
 0.92416386727E+00 0.80753032184E+00 0.72428135588E+00 0.68801302222E+00 0.72340757704E+00
 0.81964998129E+00 0.95290349942E+00 0.10973808145E+01 0.12317613652E+01 0.13360251342E+01
 0.13872372420E+01 0.13657185731E+01 0.12707549226E+01 0.11301699593E+01 0.98945631673E+00
 0.88588589263E+00 0.83046263037E+00 0.81429337497E+00 0.83046263107E+00 0.88588589399E+00
 0.98945631871E+00 0.11301699618E+01 0.12707549255E+01 0.13657185762E+01 0.13872372452E+01
 0.13360251373E+01 0.12317613681E+01 0.10973808170E+01 0.95290350148E+00 0.81964998275E+00
 0.72340757780E+00 0.68390471693E+00 0.72111058747E+00 0.82217972550E+00 0.96162513489E+00
 0.11115195082E+01 0.12487585603E+01 0.13526171875E+01 0.14006973711E+01 0.13747204630E+01
 0.12756971227E+01 0.11329995765E+01 0.99291283401E+00 0.89217221876E+00 0.83992751230E+00
 0.82513616996E+00 0.83992751299E+00 0.89217222012E+00 0.99291283600E+00 0.11329995790E+01
 0.12756971256E+01 0.13747204662E+01 0.14006973743E+01 0.13526171907E+01 0.12487585632E+01
 0.11115195108E+01 0.96162513697E+00 0.82217972698E+00 0.72111058824E+00 0.68801302222E+00
 0.72340757704E+00 0.81964998129E+00 0.95290349942E+00 0.10973808145E+01 0.12317613652E+01
 0.13360251342E+01 0.13872372420E+01 0.13657185731E+01 0.12707549226E+01 0.11301699593E+01
 0.98945631673E+00 0.88588589263E+00 0.83046263037E+00 0.81429337497E+00 0.83046263107E+00
 0.88588589399E+00 0.98945631871E+00 0.11301699618E+01 0.12707549255E+01 0.13657185762E+01
 0.13872372452E+01 0.13360251373E+01 0.12317613681E+01 0.10973808170E+01 0.95290350148E+00
 0.81964998275E+00 0.72340757780E+00 0.69378106287E+00 0.72428135514E+00 0.80753032042E+00
 0.92416386526E+00 0.10539857676E+01 0.11802225314E+01 0.12847418237E+01 0.13435282158E+01
 0.13336177172E+01 0.12499024065E+01 0.11159499003E+01 0.97484289041E+00 0.86497201204E+00
 0.80199071715E+00 0.78248781832E+00 0.80199071784E+00 0.86497201340E+00 0.97484289238E+00
 0.11159499028E+01 0.12499024093E+01 0.13336177203E+01 0.13435282190E+01 0.12847418268E+01
 0.11802225343E+01 0.10539857700E+01 0.92416386728E+00 0.80753032184E+00 0.72428135588E+00
 0.68639517629E+00 0.71039045797E+00 0.77645496344E+00 0.87114563596E+00 0.98121678694E+00
 0.10953063457E+01 0.11977900270E+01 0.12641725110E+01 0.12684447944E+01 0.12004326899E+01
 0.10779007225E+01 0.93994344412E+00 0.82542830800E+00 0.75518387144E+00 0.73228353147E+00
 0.75518387213E+00 0.82542830934E+00 0.93994344605E+00 0.10779007250E+01 0.12004326927E+01
 0.12684447974E+01 0.12641725140E+01 0.11977900300E+01 0.10953063485E+01 0.98121678937E+00
 0.87114563792E+00 0.77645496482E+00 0.71039045868E+00 0.65374794846E+00 0.67155253818E+00
 0.72129246035E+00 0.79497778354E+00 0.88528004061E+00 0.98520117886E+00 0.10816063133E+01
 0.11509950514E+01 0.11665432221E+01 0.11146366676E+01 0.10073892661E+01 0.87868099117E+00
 0.76592747891E+00 0.69320522727E+00 0.66867336513E+00 0.69320522794E+00 0.76592748022E+00
 0.87868099305E+00 0.10073892685E+01 0.11146366703E+01 0.11665432251E+01 0.11509950545E+01
 0.10816063162E+01 0.98520118157E+00 0.88528004297E+00 0.79497778542E+00 0.72129246166E+00
 0.67155253886E+00 0.59537908457E+00 0.60891621092E+00 0.64730998866E+00 0.70589923525E+00
 0.78056502945E+00 0.86651318005E+00 0.95257978201E+00 0.10178283151E+01 0.10376851385E+01
 0.99823791971E+00 0.90765625242E+00 0.79407559694E+00 0.69097035938E+00 0.62234967712E+00
 0.59872808506E+00 0.62234967777E+00 0.69097036064E+00 0.79407559875E+00 0.90765625468E+00
 0.99823792232E+00 0.10376851413E+01 0.10178283180E+01 0.95257978483E+00 0.86651318267E+00
 0.78056503172E+00 0.70589923706E+00 0.64730998991E+00 0.60891621156E+00 0.52293551732E+00
 0.53469956217E+00 0.56817508077E+00 0.61938240555E+00 0.68436473879E+00 0.75825149129E+00
 0.83108263030E+00 0.88551820777E+00 0.90181785616E+00 0.86894691350E+00 0.79343499198E+00
 0.69791630046E+00 0.60999845256E+00 0.55058273467E+00 0.52991221271E+00 0.55058273529E+00
 0.60999845376E+00 0.69791630219E+00 0.79343499415E+00 0.86894691600E+00 0.90181785887E+00
 0.88551821055E+00 0.83108263301E+00 0.75825149380E+00 0.68436474096E+00 0.61938240728E+00
 0.56817508197E+00 0.53469956279E+00 0.45238516651E+00 0.46420524193E+00 0.49752991614E+00
 0.54726552399E+00 0.60756137376E+00 0.67189106618E+00 0.73078804012E+00 0.77079597464E+00
 0.77823859023E+00 0.74677991876E+00 0.68299688100E+00 0.60476930133E+00 0.53328025082E+00
 0.48483856622E+00 0.46791591573E+00 0.48483856680E+00 0.53328025196E+00 0.60476930297E+00
 0.68299688307E+00 0.74677992115E+00 0.77823859281E+00 0.77079597728E+00 0.73078804270E+00
 0.67189106857E+00 0.60756137583E+00 0.54726552564E+00 0.49752991729E+00 0.46420524252E+00
 0.39452124221E+00 0.40682309946E+00 0.44120075790E+00 0.49123266193E+00 0.54885928244E+00
 0.60555095435E+00 0.65198009328E+00 0.67818005337E+00 0.67615544969E+00 0.64414233927E+00
 0.58915832372E+00 0.52516880398E+00 0.46774565004E+00 0.42894409683E+00 0.41536366232E+00
 0.42894409738E+00 0.46774565113E+00 0.52516880555E+00 0.58915832569E+00 0.64414234154E+00
 0.67615545214E+00 0.67818005589E+00 0.65198009574E+00 0.60555095662E+00 0.54885928441E+00
 0.49123266351E+00 0.44120075899E+00 0.40682310003E+00 0.35088496970E+00 0.36280630895E+00
 0.39608050055E+00 0.44405327263E+00 0.49774523176E+00 0.54757357595E+00 0.58450281257E+00
 0.60117080468E+00 0.59356712994E+00 0.56279720738E+00 0.51558750794E+00 0.46264221917E+00
 0.41547271285E+00 0.38341172721E+00 0.37211347130E+00 0.38341172775E+00 0.41547271389E+00
 0.46264222066E+00 0.51558750982E+00 0.56279720955E+00 0.59356713228E+00 0.60117080709E+00
 0.58450281491E+00 0.54757357812E+00 0.49774523364E+00 0.44405327413E+00 0.39608050160E+00
 0.36280630949E+00 0.31690852265E+00 0.32705356219E+00 0.35559756573E+00 0.39717949470E+00
 0.44390346527E+00 0.48682360873E+00 0.51772638317E+00 0.53079490184E+00 0.52374870555E+00
 0.49824165678E+00 0.45952117171E+00 0.41546277783E+00 0.37510755073E+00 0.34687196620E+00
 0.33673772982E+00 0.34687196671E+00 0.37510755173E+00 0.41546277927E+00 0.45952117351E+00
 0.49824165885E+00 0.52374870778E+00 0.53079490414E+00 0.51772638541E+00 0.48682361080E+00
 0.44390346707E+00 0.39717949613E+00 0.35559756673E+00 0.32705356270E+00 0.28810621246E+00
 0.29540641336E+00 0.31640246651E+00 0.34814974514E+00 0.38544571691E+00 0.42145933459E+00
 0.44933686818E+00 0.46394873896E+00 0.46283396229E+00 0.44624638997E+00 0.41698178246E+00
 0.38044136755E+00 0.34445293480E+00 0.31791944816E+00 0.30812920093E+00 0.31791944865E+00
 0.34445293576E+00 0.38044136893E+00 0.41698178419E+00 0.44624639196E+00 0.46283396445E+00
 0.46394874118E+00 0.44933687034E+00 0.42145933659E+00 0.38544571864E+00 0.34814974651E+00
 0.31640246747E+00 0.29540641385E+00 0.26388203337E+00 0.26813318187E+00 0.28105006157E+00
 0.30238402024E+00 0.33011408143E+00 0.36003991208E+00 0.38684199390E+00 0.40562352772E+00
 0.41277921936E+00 0.40623796132E+00 0.38603979281E+00 0.35556828326E+00 0.32226959068E+00
 0.29622093229E+00 0.28634412491E+00 0.29622093277E+00 0.32226959162E+00 0.35556828459E+00
 0.38603979449E+00 0.40623796325E+00 0.41277922145E+00 0.40562352986E+00 0.38684199599E+00
 0.36003991401E+00 0.33011408311E+00 0.30238402158E+00 0.28105006251E+00 0.26813318235E+00
 0.24704352626E+00 0.24899602740E+00 0.25583844947E+00 0.26939711624E+00 0.29011136594E+00
 0.31583779182E+00 0.34245128438E+00 0.36514105721E+00 0.37918809287E+00 0.38048199432E+00
 0.36688124493E+00 0.34042078292E+00 0.30856721122E+00 0.28250209372E+00 0.27243490361E+00
 0.28250209419E+00 0.30856721213E+00 0.34042078423E+00 0.36688124657E+00 0.38048199622E+00
 0.37918809492E+00 0.36514105932E+00 0.34245128644E+00 0.31583779372E+00 0.29011136759E+00
 0.26939711756E+00 0.25583845038E+00 0.24899602787E+00 0.25886706031E+00 0.26230497925E+00
 0.27308762469E+00 0.29172951341E+00 0.31709440304E+00 0.34569277053E+00 0.37257676099E+00
 0.39279544762E+00 0.40224622535E+00 0.39806414009E+00 0.37954002109E+00 0.34971537177E+00
 0.31623150544E+00 0.28970910257E+00 0.27960250926E+00 0.28970910304E+00 0.31623150636E+00
 0.34971537310E+00 0.37954002276E+00 0.39806414201E+00 0.40224622743E+00 0.39279544976E+00
 0.37257676307E+00 0.34569277246E+00 0.31709440470E+00 0.29172951474E+00 0.27308762561E+00
 0.26230497973E+00 0.26388203337E+00 0.26813318187E+00 0.28105006157E+00 0.30238402024E+00
 0.33011408143E+00 0.36003991208E+00 0.38684199390E+00 0.40562352772E+00 0.41277921936E+00
 0.40623796132E+00 0.38603979281E+00 0.35556828326E+00 0.32226959069E+00 0.29622093230E+00
 0.28634412491E+00 0.29622093277E+00 0.32226959162E+00 0.35556828460E+00 0.38603979449E+00
 0.40623796325E+00 0.41277922145E+00 0.40562352986E+00 0.38684199599E+00 0.36003991401E+00
 0.33011408311E+00 0.30238402158E+00 0.28105006251E+00 0.26813318235E+00 0.27787165301E+00
 0.28429471510E+00 0.30294063092E+00 0.33156941017E+00 0.36580231673E+00 0.39951066157E+00