unknown system                          
   1.0000000000000000     
     6.348566    0.000000    0.000000
     0.000000    2.660396    0.000000
     0.000000    0.000000    2.660396
   H    Be
     2     1
Direct
  0.774173  0.500000  0.500000
  0.225827  0.500000  0.500000
  0.500000  0.500000  0.500000

   28   28   28
 0.12136377866E+00 0.15820693947E+00 0.27117842000E+00 0.46369172365E+00 0.73117239677E+00
 0.10544381133E+01 0.14024011459E+01 0.17426689587E+01 0.20495383085E+01 0.23020690022E+01
 0.24795377754E+01 0.25681294273E+01 0.25779507267E+01 0.25494824802E+01 0.25324519635E+01
 0.25494824786E+01 0.25779507236E+01 0.25681294228E+01 0.24795377698E+01 0.23020689957E+01
 0.20495383016E+01 0.17426689516E+01 0.14024011389E+01 0.10544381067E+01 0.73117239100E+00
 0.46369171898E+00 0.27117841670E+00 0.15820693776E+00 0.12114610193E+00 0.15840356315E+00
 0.27285229630E+00 0.46834518128E+00 0.74041092278E+00 0.10692798333E+01 0.14226453258E+01
 0.17666721732E+01 0.20746102949E+01 0.23254884225E+01 0.24997574314E+01 0.25853587443E+01
 0.25935809326E+01 0.25648024872E+01 0.25478402996E+01 0.25648024856E+01 0.25935809295E+01
 0.25853587399E+01 0.24997574258E+01 0.23254884161E+01 0.20746102879E+01 0.17666721660E+01
 0.14226453188E+01 0.10692798267E+01 0.74041091702E+00 0.46834517662E+00 0.27285229301E+00
 0.15840356145E+00 0.12062928264E+00 0.15916202090E+00 0.27798018749E+00 0.48193857442E+00
 0.76673224007E+00 0.11110609432E+01 0.14794967250E+01 0.18344429781E+01 0.21462812193E+01
 0.23936959697E+01 0.25599335776E+01 0.26374202690E+01 0.26407183822E+01 0.26103722134E+01
 0.25932719907E+01 0.26103722118E+01 0.26407183791E+01 0.26374202646E+01 0.25599335720E+01
 0.23936959632E+01 0.21462812123E+01 0.18344429709E+01 0.14794967180E+01 0.11110609366E+01
 0.76673223432E+00 0.48193856976E+00 0.27798018420E+00 0.15916201919E+00 0.12020540842E+00
 0.16095834378E+00 0.28689039912E+00 0.50361147027E+00 0.80664494512E+00 0.11727769836E+01
 0.15629557142E+01 0.19350331444E+01 0.22554345842E+01 0.25014911684E+01 0.26589199915E+01
 0.27253259405E+01 0.27199876505E+01 0.26851427216E+01 0.26668075667E+01 0.26851427200E+01
 0.27199876474E+01 0.27253259360E+01 0.26589199859E+01 0.25014911619E+01 0.22554345772E+01
 0.19350331372E+01 0.15629557072E+01 0.11727769771E+01 0.80664493937E+00 0.50361146561E+00
 0.28689039582E+00 0.16095834207E+00 0.12046399629E+00 0.16448428762E+00 0.30012692581E+00
 0.53255816665E+00 0.85625550694E+00 0.12463039425E+01 0.16612179737E+01 0.20554413211E+01
 0.23912873734E+01 0.26428182615E+01 0.27954630274E+01 0.28502644740E+01 0.28319786191E+01
 0.27876365481E+01 0.27658911530E+01 0.27876365465E+01 0.28319786160E+01 0.28502644695E+01
 0.27954630218E+01 0.26428182550E+01 0.23912873664E+01 0.20554413139E+01 0.16612179667E+01
 0.12463039360E+01 0.85625550121E+00 0.53255816199E+00 0.30012692251E+00 0.16448428590E+00
 0.12204449973E+00 0.17044586007E+00 0.31828479730E+00 0.56841451721E+00 0.91297382963E+00
 0.13259354431E+01 0.17657875650E+01 0.21861582399E+01 0.25458100267E+01 0.28129494156E+01
 0.29681631247E+01 0.30124410024E+01 0.29763360465E+01 0.29159398363E+01 0.28878133490E+01
 0.29159398347E+01 0.29763360433E+01 0.30124409979E+01 0.29681631191E+01 0.28129494092E+01
 0.25458100197E+01 0.21861582327E+01 0.17657875580E+01 0.13259354366E+01 0.91297382392E+00
 0.56841451256E+00 0.31828479400E+00 0.17044585835E+00 0.12533802280E+00 0.17917145958E+00
 0.34149863799E+00 0.61097651917E+00 0.97610550209E+00 0.14103641683E+01 0.18747107177E+01
 0.23246826896E+01 0.27161648950E+01 0.30089417154E+01 0.31741162425E+01 0.32090042300E+01
 0.31501969641E+01 0.30671319761E+01 0.30296215741E+01 0.30671319745E+01 0.31501969610E+01
 0.32090042255E+01 0.31741162368E+01 0.30089417089E+01 0.27161648880E+01 0.23246826825E+01
 0.18747107107E+01 0.14103641619E+01 0.97610549640E+00 0.61097651453E+00 0.34149863468E+00
 0.17917145785E+00 0.13010153622E+00 0.19010424254E+00 0.36866008694E+00 0.65919108372E+00
 0.10458206500E+01 0.15018196973E+01 0.19918801637E+01 0.24747360383E+01 0.29034523625E+01
 0.32276926619E+01 0.34064536756E+01 0.34316183208E+01 0.33463651817E+01 0.32362158984E+01
 0.31873901077E+01 0.32362158968E+01 0.33463651785E+01 0.34316183162E+01 0.34064536699E+01
 0.32276926554E+01 0.29034523555E+01 0.24747360312E+01 0.19918801569E+01 0.15018196909E+01
 0.10458206443E+01 0.65919107908E+00 0.36866008363E+00 0.19010424081E+00 0.13526142542E+00
 0.20154599307E+00 0.39692454929E+00 0.71010696192E+00 0.11211285403E+01 0.16027709414E+01
 0.21225988880E+01 0.26413562937E+01 0.31082645620E+01 0.34626412823E+01 0.36522954053E+01
 0.36652607987E+01 0.35524072713E+01 0.34151799256E+01 0.33552245347E+01 0.34151799240E+01
 0.35524072681E+01 0.36652607941E+01 0.36522953996E+01 0.34626412758E+01 0.31082645551E+01
 0.26413562867E+01 0.21225988812E+01 0.16027709350E+01 0.11211285346E+01 0.71010695728E+00
 0.39692454596E+00 0.20154599133E+00 0.13921338201E+00 0.21107474668E+00 0.42220769456E+00
 0.75883484076E+00 0.11983439629E+01 0.17122381286E+01 0.22679878034E+01 0.28247124676E+01
 0.33257572481E+01 0.37014840830E+01 0.38931520670E+01 0.38899613978E+01 0.37519707883E+01
 0.35930517478E+01 0.35246623133E+01 0.35930517461E+01 0.37519707851E+01 0.38899613932E+01
 0.38931520613E+01 0.37014840765E+01 0.33257572411E+01 0.28247124606E+01 0.22679877966E+01
 0.17122381223E+01 0.11983439572E+01 0.75883483613E+00 0.42220769123E+00 0.21107474492E+00
 0.14060539310E+00 0.21662795549E+00 0.44076460918E+00 0.79999324094E+00 0.12713008106E+01
 0.18240165041E+01 0.24214663140E+01 0.30162146347E+01 0.35433514129E+01 0.39269426929E+01
 0.41086652786E+01 0.40856793783E+01 0.39284462498E+01 0.37573279720E+01 0.36850100125E+01
 0.37573279703E+01 0.39284462466E+01 0.40856793737E+01 0.41086652729E+01 0.39269426864E+01
 0.35433514060E+01 0.30162146278E+01 0.24214663073E+01 0.18240164978E+01 0.12713008050E+01
 0.79999323631E+00 0.44076460584E+00 0.21662795373E+00 0.13915198730E+00 0.21763535961E+00
 0.45099387127E+00 0.82992213368E+00 0.13332794163E+01 0.19277354287E+01 0.25690063132E+01
 0.31988268205E+01 0.37423723733E+01 0.41205649714E+01 0.42822103910E+01 0.42381492618E+01
 0.40693112542E+01 0.38962441448E+01 0.38246570140E+01 0.38962441431E+01 0.40693112510E+01
 0.42381492572E+01 0.42822103853E+01 0.41205649649E+01 0.37423723664E+01 0.31988268135E+01
 0.25690063065E+01 0.19277354224E+01 0.13332794107E+01 0.82992212905E+00 0.45099386792E+00
 0.21763535784E+00 0.13590666387E+00 0.21540800646E+00 0.45422228176E+00 0.84815369393E+00
 0.13792773600E+01 0.20118045366E+01 0.26925842150E+01 0.33509910165E+01 0.39024253721E+01
 0.42672771480E+01 0.44050941348E+01 0.43422783372E+01 0.41686698728E+01 0.40007391912E+01
 0.39328507218E+01 0.40007391895E+01 0.41686698695E+01 0.43422783325E+01 0.44050941291E+01
 0.42672771415E+01 0.39024253652E+01 0.33509910096E+01 0.26925842083E+01 0.20118045303E+01
 0.13792773544E+01 0.84815368930E+00 0.45422227841E+00 0.21540800469E+00 0.13276503361E+00
 0.21246139858E+00 0.45383678741E+00 0.85701014302E+00 0.14070214813E+01 0.20664114453E+01
 0.27749404115E+01 0.34521073350E+01 0.40060560368E+01 0.43578716609E+01 0.44765862310E+01
 0.44008819777E+01 0.42265104008E+01 0.40651969725E+01 0.40012141337E+01 0.40651969708E+01
 0.42265103976E+01 0.44008819731E+01 0.44765862253E+01 0.43578716544E+01 0.40060560300E+01
 0.34521073281E+01 0.27749404048E+01 0.20664114391E+01 0.14070214758E+01 0.85701013839E+00
 0.45383678405E+00 0.21246139681E+00 0.13148255156E+00 0.21116064313E+00 0.45323906274E+00
 0.85951270217E+00 0.14162180992E+01 0.20853137341E+01 0.28038557812E+01 0.34875656114E+01
 0.40418978750E+01 0.43883816255E+01 0.44998127165E+01 0.44195288892E+01 0.42453390637E+01
 0.40869294843E+01 0.40245776307E+01 0.40869294826E+01 0.42453390605E+01 0.44195288846E+01
 0.44998127108E+01 0.43883816191E+01 0.40418978682E+01 0.34875656045E+01 0.28038557745E+01
 0.20853137279E+01 0.14162180937E+01 0.85951269755E+00 0.45323905939E+00 0.21116064136E+00
 0.13276503361E+00 0.21246139858E+00 0.45383678741E+00 0.85701014302E+00 0.14070214813E+01
 0.20664114453E+01 0.27749404115E+01 0.34521073350E+01 0.40060560368E+01 0.43578716609E+01
 0.44765862310E+01 0.44008819777E+01 0.42265104008E+01 0.40651969725E+01 0.40012141337E+01
 0.40651969708E+01 0.42265103976E+01 0.44008819731E+01 0.44765862253E+01 0.43578716544E+01
 0.40060560300E+01 0.34521073281E+01 0.27749404048E+01 0.20664114391E+01 0.14070214758E+01
 0.85701013839E+00 0.45383678405E+00 0.21246139681E+00 0.13590666387E+00 0.21540800646E+00
 0.45422228176E+00 0.84815369393E+00 0.13792773600E+01 0.20118045366E+01 0.26925842150E+01
 0.33509910165E+01 0.39024253721E+01 0.42672771480E+01 0.44050941348E+01 0.43422783372E+01
 0.41686698728E+01 0.40007391912E+01 0.39328507218E+01 0.40007391895E+01 0.41686698695E+01
 0.43422783325E+01 0.44050941291E+01 0.42672771415E+01 0.39024253652E+01 0.33509910096E+01
 0.26925842083E+01 0.20118045303E+01 0.13792773544E+01 0.84815368930E+00 0.45422227841E+00
 0.21540800469E+00 0.13915198730E+00 0.21763535961E+00 0.45099387127E+00 0.82992213368E+00
 0.13332794163E+01 0.19277354287E+01 0.25690063132E+01 0.31988268205E+01 0.37423723733E+01
 0.41205649714E+01 0.42822103910E+01 0.42381492618E+01 0.40693112542E+01 0.38962441448E+01
 0.38246570140E+01 0.38962441431E+01 0.40693112510E+01 0.42381492572E+01 0.42822103853E+01
 0.41205649649E+01 0.37423723664E+01 0.31988268135E+01 0.25690063065E+01 0.19277354224E+01
 0.13332794107E+01 0.82992212905E+00 0.45099386792E+00 0.21763535784E+00 0.14060539310E+00
 0.21662795549E+00 0.44076460918E+00 0.79999324094E+00 0.12713008106E+01 0.18240165041E+01
 0.24214663140E+01 0.30162146347E+01 0.35433514129E+01 0.39269426929E+01 0.41086652786E+01
 0.40856793783E+01 0.39284462498E+01 0.37573279720E+01 0.36850100125E+01 0.37573279703E+01
 0.39284462466E+01 0.40856793737E+01 0.41086652729E+01 0.39269426864E+01 0.35433514060E+01
 0.30162146278E+01 0.24214663073E+01 0.18240164978E+01 0.12713008050E+01 0.79999323631E+00
 0.44076460584E+00 0.21662795373E+00 0.13921338201E+00 0.21107474668E+00 0.42220769456E+00
 0.75883484076E+00 0.11983439629E+01 0.17122381286E+01 0.22679878034E+01 0.28247124676E+01
 0.33257572481E+01 0.37014840830E+01 0.38931520670E+01 0.38899613978E+01 0.37519707883E+01
 0.35930517478E+01 0.35246623133E+01 0.35930517461E+01 0.37519707851E+01 0.38899613932E+01
 0.38931520613E+01 0.37014840765E+01 0.33257572411E+01 0.28247124606E+01 0.22679877966E+01
 0.17122381223E+01 0.11983439572E+01 0.75883483613E+00 0.42220769123E+00 0.21107474492E+00
 0.13526142542E+00 0.20154599307E+00 0.39692454929E+00 0.71010696192E+00 0.11211285403E+01
 0.16027709414E+01 0.21225988880E+01 0.26413562937E+01 0.31082645620E+01 0.34626412823E+01
 0.36522954053E+01 0.36652607987E+01 0.35524072713E+01 0.34151799256E+01 0.33552245347E+01
 0.34151799240E+01 0.35524072681E+01 0.36652607941E+01 0.36522953996E+01 0.34626412758E+01
 0.31082645551E+01 0.26413562867E+01 0.21225988812E+01 0.16027709350E+01 0.11211285346E+01
 0.71010695728E+00 0.39692454596E+00 0.20154599133E+00 0.13010153622E+00 0.19010424254E+00
 0.36866008694E+00 0.65919108372E+00 0.10458206500E+01 0.15018196973E+01 0.19918801637E+01
 0.24747360383E+01 0.29034523625E+01 0.32276926619E+01 0.34064536756E+01 0.34316183208E+01
 0.33463651817E+01 0.32362158984E+01 0.31873901077E+01 0.32362158968E+01 0.33463651785E+01
 0.34316183162E+01 0.34064536699E+01 0.32276926554E+01 0.29034523555E+01 0.24747360312E+01
 0.19918801569E+01 0.15018196909E+01 0.10458206443E+01 0.65919107908E+00 0.36866008363E+00
 0.19010424081E+00 0.12533802280E+00 0.17917145958E+00 0.34149863799E+00 0.61097651917E+00
 0.97610550209E+00 0.14103641683E+01 0.18747107177E+01 0.23246826896E+01 0.27161648950E+01
 0.30089417154E+01 0.31741162425E+01 0.32090042300E+01 0.31501969641E+01 0.30671319761E+01
 0.30296215741E+01 0.30671319745E+01 0.31501969610E+01 0.32090042255E+01 0.31741162368E+01
 0.30089417089E+01 0.27161648880E+01 0.23246826825E+01 0.18747107107E+01 0.14103641619E+01
 0.97610549640E+00 0.61097651453E+00 0.34149863468E+00 0.17917145785E+00 0.12204449973E+00
 0.17044586007E+00 0.31828479730E+00 0.56841451721E+00 0.91297382963E+00 0.13259354431E+01
 0.17657875650E+01 0.21861582399E+01 0.25458100267E+01 0.28129494156E+01 0.29681631247E+01
 0.30124410024E+01 0.29763360465E+01 0.29159398363E+01 0.28878133490E+01 0.29159398347E+01
 0.29763360433E+01 0.30124409979E+01 0.29681631191E+01 0.28129494092E+01 0.25458100197E+01
 0.21861582327E+01 0.17657875580E+01 0.13259354366E+01 0.91297382392E+00 0.56841451256E+00
 0.31828479400E+00 0.17044585835E+00 0.12046399629E+00 0.16448428762E+00 0.30012692581E+00
 0.53255816665E+00 0.85625550694E+00 0.12463039425E+01 0.16612179737E+01 0.20554413211E+01
 0.23912873734E+01 0.26428182615E+01 0.27954630274E+01 0.28502644740E+01 0.28319786191E+01
 0.27876365481E+01 0.27658911530E+01 0.27876365465E+01 0.28319786160E+01 0.28502644695E+01
 0.27954630218E+01 0.26428182550E+01 0.23912873664E+01 0.20554413139E+01 0.16612179667E+01
 0.12463039360E+01 0.85625550121E+00 0.53255816199E+00 0.30012692251E+00 0.16448428590E+00
 0.12020540842E+00 0.16095834378E+00 0.28689039912E+00 0.50361147027E+00 0.80664494512E+00
 0.11727769836E+01 0.15629557142E+01 0.19350331444E+01 0.22554345842E+01 0.25014911684E+01
 0.26589199915E+01 0.27253259405E+01 0.27199876505E+01 0.26851427216E+01 0.26668075667E+01
 0.26851427200E+01 0.27199876474E+01 0.27253259360E+01 0.26589199859E+01 0.25014911619E+01
 0.22554345772E+01 0.19350331372E+01 0.15629557072E+01 0.11727769771E+01 0.80664493937E+00
 0.50361146561E+00 0.28689039582E+00 0.16095834207E+00 0.12062928264E+00 0.15916202090E+00
 0.27798018749E+00 0.48193857442E+00 0.76673224007E+00 0.11110609432E+01 0.14794967250E+01
 0.18344429781E+01 0.21462812193E+01 0.23936959697E+01 0.25599335776E+01 0.26374202690E+01
 0.26407183822E+01 0.26103722134E+01 0.25932719907E+01 0.26103722118E+01 0.26407183791E+01
 0.26374202646E+01 0.25599335720E+01 0.23936959632E+01 0.21462812123E+01 0.18344429709E+01
 0.14794967180E+01 0.11110609366E+01 0.76673223432E+00 0.48193856976E+00 0.27798018420E+00
 0.15916201919E+00 0.12114610193E+00 0.15840356315E+00 0.27285229630E+00 0.46834518128E+00
 0.74041092278E+00 0.10692798333E+01 0.14226453258E+01 0.17666721732E+01 0.20746102949E+01
 0.23254884225E+01 0.24997574314E+01 0.25853587443E+01 0.25935809326E+01 0.25648024872E+01
 0.25478402996E+01 0.25648024856E+01 0.25935809295E+01 0.25853587399E+01 0.24997574258E+01
 0.23254884161E+01 0.20746102879E+01 0.17666721660E+01 0.14226453188E+01 0.10692798267E+01
 0.74041091702E+00 0.46834517662E+00 0.27285229301E+00 0.15840356145E+00 0.12114610193E+00
 0.15840356315E+00 0.27285229630E+00 0.46834518128E+00 0.74041092278E+00 0.10692798333E+01
 0.14226453258E+01 0.17666721732E+01 0.20746102949E+01 0.23254884225E+01 0.24997574314E+01
 0.25853587443E+01 0.25935809326E+01 0.25648024872E+01 0.25478402996E+01 0.25648024856E+01
 0.25935809295E+01 0.25853587399E+01 0.24997574258E+01 0.23254884161E+01 0.20746102879E+01
 0.17666721660E+01 0.14226453188E+01 0.10692798267E+01 0.74041091702E+00 0.46834517662E+00
 0.27285229301E+00 0.15840356145E+00 0.12097396871E+00 0.15857754262E+00 0.27434775895E+00
 0.47268681136E+00 0.74931299963E+00 0.10838622717E+01 0.14427150130E+01 0.17904983951E+01
 0.20994141958E+01 0.23485655816E+01 0.25197050889E+01 0.26025728732E+01 0.26095572842E+01
 0.25807794550E+01 0.25640072108E+01 0.25807794534E+01 0.26095572811E+01 0.26025728687E+01
 0.25197050832E+01 0.23485655751E+01 0.20994141888E+01 0.17904983879E+01 0.14427150059E+01
 0.10838622652E+01 0.74931299387E+00 0.47268680669E+00 0.27434775566E+00 0.15857754091E+00
 0.12058090171E+00 0.15927532910E+00 0.27899962967E+00 0.48546774982E+00 0.77480394167E+00
 0.11250824743E+01 0.14992810050E+01 0.18579872569E+01 0.21705333524E+01 0.24159859410E+01
 0.25792577025E+01 0.26546888498E+01 0.26577105027E+01 0.26281888980E+01 0.26115998273E+01
 0.26281888964E+01 0.26577104996E+01 0.26546888454E+01 0.25792576969E+01 0.24159859345E+01
 0.21705333455E+01 0.18579872497E+01 0.14992809980E+01 0.11250824678E+01 0.77480393591E+00
 0.48546774515E+00 0.27899962638E+00 0.15927532739E+00 0.12032475503E+00 0.16099027687E+00
 0.28728816546E+00 0.50614778990E+00 0.81386148242E+00 0.11865039957E+01 0.15829626820E+01
 0.19588345690E+01 0.22795053726E+01 0.25231731524E+01 0.26777704904E+01 0.27429725422E+01
 0.27385887874E+01 0.27056137186E+01 0.26881933731E+01 0.27056137170E+01 0.27385887843E+01
 0.27429725377E+01 0.26777704848E+01 0.25231731460E+01 0.22795053656E+01 0.19588345619E+01
 0.15829626750E+01 0.11865039892E+01 0.81386147668E+00 0.50614778524E+00 0.28728816216E+00
 0.16099027516E+00 0.12074932279E+00 0.16443173452E+00 0.29994205112E+00 0.53431664765E+00
 0.86317074199E+00 0.12606928585E+01 0.16826920020E+01 0.20807974908E+01 0.24163265479E+01
 0.26648310613E+01 0.28146056030E+01 0.28689099088E+01 0.28526437600E+01 0.28110517284E+01
 0.27905521244E+01 0.28110517268E+01 0.28526437569E+01 0.28689099043E+01 0.28146055974E+01
 0.26648310548E+01 0.24163265410E+01 0.20807974837E+01 0.16826919950E+01 0.12606928520E+01
 0.86317073627E+00 0.53431664299E+00 0.29994204782E+00 0.16443173280E+00 0.12244929097E+00
 0.17031816371E+00 0.31771612160E+00 0.56994423031E+00 0.92060563367E+00 0.13424573631E+01
 0.17904855070E+01 0.22148856658E+01 0.25735304123E+01 0.28368254060E+01 0.29888687255E+01
 0.30329375349E+01 0.29993455726E+01 0.29420441748E+01 0.29152718403E+01 0.29420441732E+01
 0.29993455694E+01 0.30329375304E+01 0.29888687198E+01 0.28368253995E+01 0.25735304053E+01
 0.22148856587E+01 0.17904855001E+01 0.13424573566E+01 0.92060562796E+00 0.56994422566E+00
 0.31771611830E+00 0.17031816199E+00 0.12579088416E+00 0.17899322165E+00 0.34085088354E+00
 0.61300607777E+00 0.98565349562E+00 0.14306044279E+01 0.19044269372E+01 0.23586236809E+01
 0.27483828613E+01 0.30364258013E+01 0.31978991241E+01 0.32323214810E+01 0.31756911964E+01
 0.30952713159E+01 0.30588921315E+01 0.30952713143E+01 0.31756911932E+01 0.32323214765E+01
 0.31978991184E+01 0.30364257948E+01 0.27483828543E+01 0.23586236738E+01 0.19044269303E+01
 0.14306044214E+01 0.98565348994E+00 0.61300607313E+00 0.34085088023E+00 0.17899321993E+00
 0.13055044302E+00 0.18993521175E+00 0.36828817109E+00 0.66245120652E+00 0.10583500105E+01
 0.15270488723E+01 0.20279568350E+01 0.25152570167E+01 0.29416109104E+01 0.32603322461E+01
 0.34347885388E+01 0.34587480278E+01 0.33744585642E+01 0.32656168537E+01 0.32173223660E+01
 0.32656168521E+01 0.33744585611E+01 0.34587480233E+01 0.34347885331E+01 0.32603322396E+01
 0.29416109035E+01 0.25152570097E+01 0.20279568282E+01 0.15270488659E+01 0.10583500048E+01
 0.66245120188E+00 0.36828816777E+00 0.18993521001E+00 0.13572823192E+00 0.20150664191E+00
 0.39718384855E+00 0.71518823143E+00 0.11373507449E+01 0.16336829549E+01 0.21656515468E+01
 0.26890712372E+01 0.31531533374E+01 0.35015174009E+01 0.36864120672E+01 0.36971532862E+01
 0.35833218724E+01 0.34452604186E+01 0.33848852749E+01 0.34452604169E+01 0.35833218692E+01
 0.36971532816E+01 0.36864120616E+01 0.35015173944E+01 0.31531533305E+01 0.26890712302E+01
 0.21656515400E+01 0.16336829486E+01 0.11373507392E+01 0.71518822680E+00 0.39718384522E+00
 0.20150664016E+00 0.13982035985E+00 0.21134747689E+00 0.42340306297E+00 0.76610403055E+00
 0.12185438003E+01 0.17489173234E+01 0.23179097812E+01 0.28794950387E+01 0.33774909760E+01
 0.37471284888E+01 0.39339114122E+01 0.39274401047E+01 0.37860825019E+01 0.36236224915E+01
 0.35536064793E+01 0.36236224899E+01 0.37860824987E+01 0.39274401002E+01 0.39339114065E+01
 0.37471284823E+01 0.33774909691E+01 0.28794950318E+01 0.23179097745E+01 0.17489173171E+01
 0.12185437946E+01 0.76610402592E+00 0.42340305964E+00 0.21134747513E+00 0.14153983246E+00
 0.21741146028E+00 0.44309389127E+00 0.80955985034E+00 0.12953673326E+01 0.18660480167E+01
 0.24775985949E+01 0.30773806971E+01 0.36014999480E+01 0.39793534734E+01 0.41564473978E+01
 0.41292695742E+01 0.39661646925E+01 0.37885807559E+01 0.37133241081E+01 0.37885807542E+01
 0.39661646893E+01 0.41292695696E+01 0.41564473920E+01 0.39793534669E+01 0.36014999411E+01
 0.30773806901E+01 0.24775985882E+01 0.18660480104E+01 0.12953673271E+01 0.80955984571E+00
 0.44309388793E+00 0.21741145852E+00 0.14057600084E+00 0.21906367779E+00 0.45449583885E+00
 0.84163525647E+00 0.13607667192E+01 0.19743331243E+01 0.26303165874E+01 0.32653214488E+01
 0.38060869322E+01 0.41792044180E+01 0.43367628884E+01 0.42878256663E+01 0.41108132483E+01
 0.39285262677E+01 0.38527592880E+01 0.39285262660E+01 0.41108132451E+01 0.42878256616E+01
 0.43367628827E+01 0.41792044115E+01 0.38060869253E+01 0.32653214418E+01 0.26303165807E+01
 0.19743331180E+01 0.13607667136E+01 0.84163525185E+00 0.45449583550E+00 0.21906367602E+00
 0.13786256857E+00 0.21747647167E+00 0.45874835511E+00 0.86161756132E+00 0.14094550671E+01
 0.20618967822E+01 0.27577827445E+01 0.34215003014E+01 0.39704905828E+01 0.43310228819E+01
 0.44653794634E+01 0.43972326452E+01 0.42136131782E+01 0.40342336436E+01 0.39611592229E+01
 0.40342336420E+01 0.42136131750E+01 0.43972326405E+01 0.44653794577E+01 0.43310228754E+01
 0.39704905759E+01 0.34215002945E+01 0.27577827378E+01 0.20618967760E+01 0.14094550615E+01
 0.86161755670E+00 0.45874835176E+00 0.21747646990E+00 0.13513153067E+00 0.21500090908E+00
 0.45906168778E+00 0.87162073569E+00 0.14389233882E+01 0.21187020686E+01 0.28425515093E+01
 0.35251181004E+01 0.40769124291E+01 0.44250018199E+01 0.45407445530E+01 0.44594536771E+01
 0.42738925936E+01 0.40996911086E+01 0.40298729849E+01 0.40996911069E+01 0.42738925903E+01
 0.44594536724E+01 0.45407445473E+01 0.44250018134E+01 0.40769124223E+01 0.35251180935E+01
 0.28425515027E+01 0.21187020624E+01 0.14389233827E+01 0.87162073107E+00 0.45906168442E+00
 0.21500090730E+00 0.13400311302E+00 0.21387323599E+00 0.45871199856E+00 0.87452270363E+00
 0.14487144972E+01 0.21383551758E+01 0.28722848430E+01 0.35614269673E+01 0.41137189020E+01
 0.44567006835E+01 0.45653432466E+01 0.44793906177E+01 0.42936057676E+01 0.41218121316E+01
 0.40534014075E+01 0.41218121300E+01 0.42936057644E+01 0.44793906131E+01 0.45653432409E+01
 0.44567006770E+01 0.41137188951E+01 0.35614269604E+01 0.28722848363E+01 0.21383551696E+01
 0.14487144916E+01 0.87452269901E+00 0.45871199519E+00 0.21387323420E+00 0.13513153067E+00
 0.21500090908E+00 0.45906168778E+00 0.87162073569E+00 0.14389233882E+01 0.21187020686E+01
 0.28425515093E+01 0.35251181004E+01 0.40769124291E+01 0.44250018199E+01 0.45407445530E+01
 0.44594536771E+01 0.42738925936E+01 0.40996911086E+01 0.40298729849E+01 0.40996911069E+01
 0.42738925903E+01 0.44594536724E+01 0.45407445473E+01 0.44250018134E+01 0.40769124223E+01
 0.35251180935E+01 0.28425515027E+01 0.21187020624E+01 0.14389233827E+01 0.87162073107E+00
 0.45906168442E+00 0.21500090730E+00 0.13786256857E+00 0.21747647167E+00 0.45874835511E+00
 0.86161756133E+00 0.14094550671E+01 0.20618967822E+01 0.27577827445E+01 0.34215003014E+01
 0.39704905828E+01 0.43310228819E+01 0.44653794634E+01 0.43972326452E+01 0.42136131782E+01
 0.40342336436E+01 0.39611592229E+01 0.40342336420E+01 0.42136131750E+01 0.43972326405E+01
 0.44653794577E+01 0.43310228754E+01 0.39704905759E+01 0.34215002945E+01 0.27577827378E+01
 0.20618967760E+01 0.14094550615E+01 0.86161755670E+00 0.45874835176E+00 0.21747646990E+00
 0.14057600084E+00 0.21906367779E+00 0.45449583885E+00 0.84163525647E+00 0.13607667192E+01
 0.19743331243E+01 0.26303165874E+01 0.32653214488E+01 0.38060869322E+01 0.41792044180E+01
 0.43367628884E+01 0.42878256663E+01 0.41108132483E+01 0.39285262677E+01 0.38527592880E+01
 0.39285262660E+01 0.41108132451E+01 0.42878256616E+01 0.43367628827E+01 0.41792044115E+01
 0.38060869253E+01 0.32653214418E+01 0.26303165807E+01 0.19743331180E+01 0.13607667136E+01
 0.84163525185E+00 0.45449583550E+00 0.21906367602E+00 0.14153983246E+00 0.21741146028E+00
 0.44309389127E+00 0.80955985034E+00 0.12953673326E+01 0.18660480167E+01 0.24775985949E+01
 0.30773806971E+01 0.36014999480E+01 0.39793534734E+01 0.41564473978E+01 0.41292695742E+01
 0.39661646925E+01 0.37885807559E+01 0.37133241081E+01 0.37885807542E+01 0.39661646893E+01
 0.41292695696E+01 0.41564473920E+01 0.39793534669E+01 0.36014999411E+01 0.30773806901E+01
 0.24775985882E+01 0.18660480104E+01 0.12953673271E+01 0.80955984571E+00 0.44309388793E+00
 0.21741145852E+00 0.13982035985E+00 0.21134747689E+00 0.42340306297E+00 0.76610403055E+00
 0.12185438003E+01 0.17489173234E+01 0.23179097812E+01 0.28794950387E+01 0.33774909760E+01
 0.37471284888E+01 0.39339114122E+01 0.39274401047E+01 0.37860825019E+01 0.36236224915E+01
 0.35536064793E+01 0.36236224899E+01 0.37860824987E+01 0.39274401002E+01 0.39339114065E+01
 0.37471284823E+01 0.33774909691E+01 0.28794950318E+01 0.23179097745E+01 0.17489173171E+01
 0.12185437946E+01 0.76610402592E+00 0.42340305964E+00 0.21134747513E+00 0.13572823192E+00
 0.20150664191E+00 0.39718384855E+00 0.71518823143E+00 0.11373507449E+01 0.16336829549E+01
 0.21656515468E+01 0.26890712372E+01 0.31531533374E+01 0.35015174009E+01 0.36864120672E+01
 0.36971532862E+01 0.35833218724E+01 0.34452604186E+01 0.33848852749E+01 0.34452604169E+01
 0.35833218692E+01 0.36971532816E+01 0.36864120615E+01 0.35015173944E+01 0.31531533305E+01
 0.26890712302E+01 0.21656515400E+01 0.16336829486E+01 0.11373507392E+01 0.71518822680E+00
 0.39718384522E+00 0.20150664016E+00 0.13055044302E+00 0.18993521175E+00 0.36828817109E+00
 0.66245120652E+00 0.10583500105E+01 0.15270488723E+01 0.20279568350E+01 0.25152570167E+01
 0.29416109104E+01 0.32603322461E+01 0.34347885388E+01 0.34587480278E+01 0.33744585642E+01
 0.32656168537E+01 0.32173223660E+01 0.32656168521E+01 0.33744585611E+01 0.34587480233E+01
 0.34347885331E+01 0.32603322396E+01 0.29416109035E+01 0.25152570097E+01 0.20279568282E+01
 0.15270488659E+01 0.10583500048E+01 0.66245120188E+00 0.36828816777E+00 0.18993521001E+00
 0.12579088416E+00 0.17899322165E+00 0.34085088354E+00 0.61300607777E+00 0.98565349562E+00
 0.14306044279E+01 0.19044269372E+01 0.23586236809E+01 0.27483828613E+01 0.30364258013E+01
 0.31978991241E+01 0.32323214810E+01 0.31756911964E+01 0.30952713159E+01 0.30588921315E+01
 0.30952713143E+01 0.31756911932E+01 0.32323214765E+01 0.31978991184E+01 0.30364257948E+01
 0.27483828543E+01 0.23586236738E+01 0.19044269303E+01 0.14306044214E+01 0.98565348994E+00
 0.61300607313E+00 0.34085088023E+00 0.17899321993E+00 0.12244929097E+00 0.17031816371E+00
 0.31771612160E+00 0.56994423031E+00 0.92060563367E+00 0.13424573631E+01 0.17904855070E+01
 0.22148856658E+01 0.25735304123E+01 0.28368254060E+01 0.29888687255E+01 0.30329375349E+01
 0.29993455726E+01 0.29420441748E+01 0.29152718403E+01 0.29420441732E+01 0.29993455694E+01
 0.30329375304E+01 0.29888687198E+01 0.28368253995E+01 0.25735304053E+01 0.22148856587E+01
 0.17904855001E+01 0.13424573566E+01 0.92060562796E+00 0.56994422566E+00 0.31771611830E+00
 0.17031816199E+00 0.12074932279E+00 0.16443173452E+00 0.29994205112E+00 0.53431664765E+00
 0.86317074199E+00 0.12606928585E+01 0.16826920020E+01 0.20807974908E+01 0.24163265479E+01
 0.26648310613E+01 0.28146056030E+01 0.28689099088E+01 0.28526437600E+01 0.28110517284E+01
 0.27905521244E+01 0.28110517268E+01 0.28526437569E+01 0.28689099043E+01 0.28146055974E+01
 0.26648310548E+01 0.24163265410E+01 0.20807974837E+01 0.16826919950E+01 0.12606928520E+01
 0.86317073627E+00 0.53431664299E+00 0.29994204782E+00 0.16443173281E+00 0.12032475503E+00
 0.16099027687E+00 0.28728816546E+00 0.50614778990E+00 0.81386148242E+00 0.11865039957E+01
 0.15829626820E+01 0.19588345690E+01 0.22795053726E+01 0.25231731524E+01 0.26777704904E+01
 0.27429725422E+01 0.27385887874E+01 0.27056137186E+01 0.26881933731E+01 0.27056137170E+01
 0.27385887843E+01 0.27429725377E+01 0.26777704848E+01 0.25231731460E+01 0.22795053656E+01
 0.19588345619E+01 0.15829626750E+01 0.11865039892E+01 0.81386147668E+00 0.50614778524E+00
 0.28728816216E+00 0.16099027516E+00 0.12058090171E+00 0.15927532910E+00 0.27899962967E+00
 0.48546774982E+00 0.77480394167E+00 0.11250824743E+01 0.14992810050E+01 0.18579872569E+01
 0.21705333524E+01 0.24159859410E+01 0.25792577025E+01 0.26546888498E+01 0.26577105027E+01
 0.26281888980E+01 0.26115998273E+01 0.26281888964E+01 0.26577104996E+01 0.26546888454E+01
 0.25792576969E+01 0.24159859345E+01 0.21705333455E+01 0.18579872497E+01 0.14992809980E+01
 0.11250824678E+01 0.77480393591E+00 0.48546774515E+00 0.27899962638E+00 0.15927532739E+00
 0.12097396871E+00 0.15857754262E+00 0.27434775895E+00 0.47268681136E+00 0.74931299963E+00
 0.10838622717E+01 0.14427150130E+01 0.17904983951E+01 0.20994141958E+01 0.23485655816E+01
 0.25197050889E+01 0.26025728732E+01 0.26095572842E+01 0.25807794550E+01 0.25640072108E+01
 0.25807794534E+01 0.26095572811E+01 0.26025728687E+01 0.25197050832E+01 0.23485655751E+01
 0.20994141888E+01 0.17904983879E+01 0.14427150059E+01 0.10838622652E+01 0.74931299387E+00
 0.47268680669E+00 0.27434775566E+00 0.15857754091E+00 0.12062928264E+00 0.15916202090E+00
 0.27798018749E+00 0.48193857442E+00 0.76673224007E+00 0.11110609432E+01 0.14794967250E+01
 0.18344429781E+01 0.21462812193E+01 0.23936959697E+01 0.25599335776E+01 0.26374202690E+01
 0.26407183822E+01 0.26103722134E+01 0.25932719907E+01 0.26103722118E+01 0.26407183791E+01
 0.26374202646E+01 0.25599335720E+01 0.23936959632E+01 0.21462812123E+01 0.18344429709E+01
 0.14794967180E+01 0.11110609366E+01 0.76673223432E+00 0.48193856976E+00 0.27798018420E+00
 0.15916201919E+00 0.12058090171E+00 0.15927532910E+00 0.27899962967E+00 0.48546774982E+00
 0.77480394167E+00 0.11250824743E+01 0.14992810050E+01 0.18579872569E+01 0.21705333524E+01
 0.24159859410E+01 0.25792577025E+01 0.26546888498E+01 0.26577105027E+01 0.26281888980E+01
 0.26115998273E+01 0.26281888964E+01 0.26577104996E+01 0.26546888454E+01 0.25792576969E+01
 0.24159859345E+01 0.21705333455E+01 0.18579872497E+01 0.14992809980E+01 0.11250824678E+01
 0.77480393591E+00 0.48546774515E+00 0.27899962638E+00 0.15927532739E+00 0.12053339280E+00
 0.15982128366E+00 0.28239762192E+00 0.49616236223E+00 0.79831096091E+00 0.11652358011E+01