   3   3   0   0
  0.1225332E+02  0.3325000E-09  0.3325000E-09  0.3325000E-09  0.5000000E-15
   1.0000000000000000E-004
  CAR 
 unknown system                          
     11.37941019    -10.96087252  301     -0.38632659      1.00000000
    -10.961  0.0000E+00  0.0000E+00
    -10.886  0.0000E+00  0.0000E+00
    -10.812  0.0000E+00  0.0000E+00
    -10.737  0.0000E+00  0.0000E+00
    -10.663  0.0000E+00  0.0000E+00
    -10.589  0.0000E+00  0.0000E+00
    -10.514  0.0000E+00  0.0000E+00
    -10.440  0.0000E+00  0.0000E+00
    -10.365  0.0000E+00  0.0000E+00
    -10.291  0.0000E+00  0.0000E+00
    -10.216  0.0000E+00  0.0000E+00
    -10.142  0.2982E-15  0.2220E-16
    -10.067  0.1342E-13  0.1021E-14
     -9.993  0.7779E-12  0.5895E-13
     -9.918  0.3374E-10  0.2572E-11
     -9.844  0.1114E-08  0.8549E-10
     -9.769  0.2796E-07  0.2167E-08
     -9.695  0.5341E-06  0.4194E-07
     -9.620  0.7768E-05  0.6204E-06
     -9.546  0.8601E-04  0.7026E-05
     -9.472  0.7254E-03  0.6104E-04
     -9.397  0.4661E-02  0.4081E-03
     -9.323  0.2282E-01  0.2107E-02
     -9.248  0.8515E-01  0.8448E-02
     -9.174  0.2422E+00  0.2649E-01
     -9.099  0.5254E+00  0.6562E-01
     -9.025  0.8691E+00  0.1303E+00
     -8.950  0.1096E+01  0.2120E+00
     -8.876  0.1055E+01  0.2905E+00
     -8.801  0.7739E+00  0.3482E+00
     -8.727  0.4331E+00  0.3804E+00
     -8.652  0.1848E+00  0.3942E+00
     -8.578  0.6012E-01  0.3986E+00
     -8.503  0.1491E-01  0.3998E+00
     -8.429  0.2818E-02  0.4000E+00
     -8.355  0.4059E-03  0.4000E+00
     -8.280  0.4453E-04  0.4000E+00
     -8.206  0.3720E-05  0.4000E+00
     -8.131  0.2367E-06  0.4000E+00
     -8.057  0.1146E-07  0.4000E+00
     -7.982  0.4222E-09  0.4000E+00
     -7.908  0.1183E-10  0.4000E+00
     -7.833  0.2523E-12  0.4000E+00
     -7.759  0.4174E-14  0.4000E+00
     -7.684  0.0000E+00  0.4000E+00
     -7.610  0.0000E+00  0.4000E+00
     -7.535  0.0000E+00  0.4000E+00
     -7.461  0.0000E+00  0.4000E+00
     -7.386  0.0000E+00  0.4000E+00
     -7.312  0.0000E+00  0.4000E+00
     -7.237  0.0000E+00  0.4000E+00
     -7.163  0.0000E+00  0.4000E+00
     -7.089  0.0000E+00  0.4000E+00
     -7.014  0.0000E+00  0.4000E+00
     -6.940  0.0000E+00  0.4000E+00
     -6.865  0.0000E+00  0.4000E+00
     -6.791  0.0000E+00  0.4000E+00
     -6.716  0.0000E+00  0.4000E+00
     -6.642  0.0000E+00  0.4000E+00
     -6.567  0.0000E+00  0.4000E+00
     -6.493  0.0000E+00  0.4000E+00
     -6.418  0.0000E+00  0.4000E+00
     -6.344  0.0000E+00  0.4000E+00
     -6.269  0.0000E+00  0.4000E+00
     -6.195  0.0000E+00  0.4000E+00
     -6.120  0.0000E+00  0.4000E+00
     -6.046  0.0000E+00  0.4000E+00
     -5.972  0.0000E+00  0.4000E+00
     -5.897  0.0000E+00  0.4000E+00
     -5.823  0.0000E+00  0.4000E+00
     -5.748  0.0000E+00  0.4000E+00
     -5.674  0.0000E+00  0.4000E+00
     -5.599  0.0000E+00  0.4000E+00
     -5.525  0.0000E+00  0.4000E+00
     -5.450  0.0000E+00  0.4000E+00
     -5.376  0.0000E+00  0.4000E+00
     -5.301  0.0000E+00  0.4000E+00
     -5.227  0.0000E+00  0.4000E+00
     -5.152  0.0000E+00  0.4000E+00
     -5.078  0.0000E+00  0.4000E+00
     -5.003  0.0000E+00  0.4000E+00
     -4.929  0.0000E+00  0.4000E+00
     -4.855  0.0000E+00  0.4000E+00
     -4.780  0.0000E+00  0.4000E+00
     -4.706  0.0000E+00  0.4000E+00
     -4.631  0.0000E+00  0.4000E+00
     -4.557  0.0000E+00  0.4000E+00
     -4.482  0.0000E+00  0.4000E+00
     -4.408  0.0000E+00  0.4000E+00
     -4.333  0.0000E+00  0.4000E+00
     -4.259  0.0000E+00  0.4000E+00
     -4.184  0.0000E+00  0.4000E+00
     -4.110  0.0000E+00  0.4000E+00
     -4.035  0.0000E+00  0.4000E+00
     -3.961  0.0000E+00  0.4000E+00
     -3.886  0.0000E+00  0.4000E+00
     -3.812  0.0000E+00  0.4000E+00
     -3.738  0.0000E+00  0.4000E+00
     -3.663  0.0000E+00  0.4000E+00
     -3.589  0.0000E+00  0.4000E+00
     -3.514  0.0000E+00  0.4000E+00
     -3.440  0.0000E+00  0.4000E+00
     -3.365  0.0000E+00  0.4000E+00
     -3.291  0.0000E+00  0.4000E+00
     -3.216  0.0000E+00  0.4000E+00
     -3.142  0.0000E+00  0.4000E+00
     -3.067  0.0000E+00  0.4000E+00
     -2.993  0.0000E+00  0.4000E+00
     -2.918  0.0000E+00  0.4000E+00
     -2.844  0.0000E+00  0.4000E+00
     -2.769  0.0000E+00  0.4000E+00
     -2.695  0.0000E+00  0.4000E+00
     -2.621  0.0000E+00  0.4000E+00
     -2.546  0.0000E+00  0.4000E+00
     -2.472  0.4771E-14  0.4000E+00
     -2.397  0.2809E-12  0.4000E+00
     -2.323  0.1308E-10  0.4000E+00
     -2.248  0.4633E-09  0.4000E+00
     -2.174  0.1248E-07  0.4000E+00
     -2.099  0.2559E-06  0.4000E+00
     -2.025  0.3993E-05  0.4000E+00
     -1.950  0.4744E-04  0.4000E+00
     -1.876  0.4292E-03  0.4000E+00
     -1.801  0.2959E-02  0.4003E+00
     -1.727  0.1554E-01  0.4014E+00
     -1.652  0.6220E-01  0.4060E+00
     -1.578  0.1898E+00  0.4202E+00
     -1.503  0.4415E+00  0.4531E+00
     -1.429  0.7832E+00  0.5114E+00
     -1.355  0.1060E+01  0.5903E+00
     -1.280  0.1093E+01  0.6717E+00
     -1.206  0.8604E+00  0.7358E+00
     -1.131  0.5164E+00  0.7742E+00
     -1.057  0.2363E+00  0.7918E+00
     -0.982  0.8246E-01  0.7980E+00
     -0.908  0.2194E-01  0.7996E+00
     -0.833  0.4448E-02  0.7999E+00
     -0.759  0.6872E-03  0.8000E+00
     -0.684  0.8088E-04  0.8000E+00
     -0.610  0.7251E-05  0.8000E+00
     -0.535  0.4949E-06  0.8000E+00
     -0.461  0.2571E-07  0.8000E+00
     -0.386  0.1017E-08  0.8000E+00
     -0.312  0.3058E-10  0.8000E+00
     -0.238  0.7001E-12  0.8000E+00
     -0.163  0.1193E-13  0.8000E+00
     -0.089  0.0000E+00  0.8000E+00
     -0.014  0.0000E+00  0.8000E+00
      0.060  0.0000E+00  0.8000E+00
      0.135  0.0000E+00  0.8000E+00
      0.209  0.0000E+00  0.8000E+00
      0.284  0.0000E+00  0.8000E+00
      0.358  0.0000E+00  0.8000E+00
      0.433  0.0000E+00  0.8000E+00
      0.507  0.0000E+00  0.8000E+00
      0.582  0.0000E+00  0.8000E+00
      0.656  0.0000E+00  0.8000E+00
      0.731  0.0000E+00  0.8000E+00
      0.805  0.0000E+00  0.8000E+00
      0.879  0.0000E+00  0.8000E+00
      0.954  0.0000E+00  0.8000E+00
      1.028  0.0000E+00  0.8000E+00
      1.103  0.0000E+00  0.8000E+00
      1.177  0.0000E+00  0.8000E+00
      1.252  0.0000E+00  0.8000E+00
      1.326  0.0000E+00  0.8000E+00
      1.401  0.0000E+00  0.8000E+00
      1.475  0.0000E+00  0.8000E+00
      1.550  0.0000E+00  0.8000E+00
      1.624  0.2982E-15  0.8000E+00
      1.699  0.1610E-13  0.8000E+00
      1.773  0.9088E-12  0.8000E+00
      1.848  0.3900E-10  0.8000E+00
      1.922  0.1273E-08  0.8000E+00
      1.996  0.3161E-07  0.8000E+00
      2.071  0.5974E-06  0.8000E+00
      2.145  0.8595E-05  0.8000E+00
      2.220  0.9414E-04  0.8000E+00
      2.294  0.7854E-03  0.8001E+00
      2.369  0.4992E-02  0.8004E+00
      2.443  0.2418E-01  0.8022E+00
      2.518  0.8924E-01  0.8089E+00
      2.592  0.2511E+00  0.8276E+00
      2.667  0.5389E+00  0.8677E+00
      2.741  0.8818E+00  0.9334E+00
      2.816  0.1100E+01  0.1015E+01
      2.890  0.1047E+01  0.1093E+01
      2.965  0.7601E+00  0.1150E+01
      3.039  0.4208E+00  0.1181E+01
      3.114  0.1776E+00  0.1194E+01
      3.188  0.5716E-01  0.1199E+01
      3.262  0.1402E-01  0.1200E+01
      3.337  0.2622E-02  0.1200E+01
      3.411  0.3735E-03  0.1200E+01
      3.486  0.4054E-04  0.1200E+01
      3.560  0.3350E-05  0.1200E+01
      3.635  0.2108E-06  0.1200E+01
      3.709  0.1010E-07  0.1200E+01
      3.784  0.3681E-09  0.1200E+01
      3.858  0.1672E-10  0.1200E+01
      3.933  0.2557E-09  0.1200E+01
      4.007  0.7615E-08  0.1200E+01
      4.082  0.1727E-06  0.1200E+01
      4.156  0.2982E-05  0.1200E+01
      4.231  0.3919E-04  0.1200E+01
      4.305  0.3922E-03  0.1200E+01
      4.379  0.2989E-02  0.1200E+01
      4.454  0.1736E-01  0.1202E+01
      4.528  0.7684E-01  0.1207E+01
      4.603  0.2592E+00  0.1227E+01
      4.677  0.6668E+00  0.1276E+01
      4.752  0.1308E+01  0.1374E+01
      4.826  0.1956E+01  0.1519E+01
      4.901  0.2231E+01  0.1685E+01
      4.975  0.1941E+01  0.1830E+01
      5.050  0.1288E+01  0.1926E+01
      5.124  0.6515E+00  0.1974E+01
      5.199  0.2513E+00  0.1993E+01
      5.273  0.7393E-01  0.1999E+01
      5.348  0.1657E-01  0.2000E+01
      5.422  0.2832E-02  0.2000E+01
      5.496  0.3686E-03  0.2000E+01
      5.571  0.3655E-04  0.2000E+01
      5.645  0.2760E-05  0.2000E+01
      5.720  0.1586E-06  0.2000E+01
      5.794  0.6939E-08  0.2000E+01
      5.869  0.2310E-09  0.2000E+01
      5.943  0.5847E-11  0.2000E+01
      6.018  0.1121E-12  0.2000E+01
      6.092  0.2385E-14  0.2000E+01
      6.167  0.0000E+00  0.2000E+01
      6.241  0.0000E+00  0.2000E+01
      6.316  0.0000E+00  0.2000E+01
      6.390  0.0000E+00  0.2000E+01
      6.465  0.0000E+00  0.2000E+01
      6.539  0.0000E+00  0.2000E+01
      6.613  0.0000E+00  0.2000E+01
      6.688  0.0000E+00  0.2000E+01
      6.762  0.0000E+00  0.2000E+01
      6.837  0.0000E+00  0.2000E+01
      6.911  0.0000E+00  0.2000E+01
      6.986  0.0000E+00  0.2000E+01
      7.060  0.0000E+00  0.2000E+01
      7.135  0.0000E+00  0.2000E+01
      7.209  0.0000E+00  0.2000E+01
      7.284  0.0000E+00  0.2000E+01
      7.358  0.0000E+00  0.2000E+01
      7.433  0.0000E+00  0.2000E+01
      7.507  0.0000E+00  0.2000E+01
      7.582  0.0000E+00  0.2000E+01
      7.656  0.0000E+00  0.2000E+01
      7.730  0.0000E+00  0.2000E+01
      7.805  0.0000E+00  0.2000E+01
      7.879  0.0000E+00  0.2000E+01
      7.954  0.0000E+00  0.2000E+01
      8.028  0.0000E+00  0.2000E+01
      8.103  0.0000E+00  0.2000E+01
      8.177  0.0000E+00  0.2000E+01
      8.252  0.4174E-14  0.2000E+01
      8.326  0.2523E-12  0.2000E+01
      8.401  0.1183E-10  0.2000E+01
      8.475  0.4222E-09  0.2000E+01
      8.550  0.1146E-07  0.2000E+01
      8.624  0.2367E-06  0.2000E+01
      8.699  0.3720E-05  0.2000E+01
      8.773  0.4453E-04  0.2000E+01
      8.848  0.4059E-03  0.2000E+01
      8.922  0.2818E-02  0.2000E+01
      8.996  0.1491E-01  0.2001E+01
      9.071  0.6012E-01  0.2006E+01
      9.145  0.1848E+00  0.2020E+01
      9.220  0.4331E+00  0.2052E+01
      9.294  0.7739E+00  0.2109E+01
      9.369  0.1055E+01  0.2188E+01
      9.443  0.1096E+01  0.2270E+01
      9.518  0.8691E+00  0.2334E+01
      9.592  0.5254E+00  0.2374E+01
      9.667  0.2422E+00  0.2392E+01
      9.741  0.8515E-01  0.2398E+01
      9.816  0.2282E-01  0.2400E+01
      9.890  0.4661E-02  0.2400E+01
      9.965  0.7254E-03  0.2400E+01
     10.039  0.8601E-04  0.2400E+01
     10.113  0.7768E-05  0.2400E+01
     10.188  0.5341E-06  0.2400E+01
     10.262  0.2796E-07  0.2400E+01
     10.337  0.1114E-08  0.2400E+01
     10.411  0.3374E-10  0.2400E+01
     10.486  0.7782E-12  0.2400E+01
     10.560  0.1372E-13  0.2400E+01
     10.635  0.0000E+00  0.2400E+01
     10.709  0.0000E+00  0.2400E+01
     10.784  0.0000E+00  0.2400E+01
     10.858  0.0000E+00  0.2400E+01
     10.933  0.0000E+00  0.2400E+01
     11.007  0.0000E+00  0.2400E+01
     11.082  0.0000E+00  0.2400E+01
     11.156  0.0000E+00  0.2400E+01
     11.230  0.0000E+00  0.2400E+01
     11.305  0.0000E+00  0.2400E+01
     11.379  0.0000E+00  0.2400E+01
