   3   3   0   0
  0.1225332E+02  0.3325000E-09  0.3325000E-09  0.3325000E-09  0.5000000E-15
   1.0000000000000000E-004
  CAR 
 unknown system                          
      9.41051168    -10.63061681  301     -5.28628326      1.00000000
    -10.631  0.0000E+00  0.0000E+00
    -10.564  0.0000E+00  0.0000E+00
    -10.497  0.0000E+00  0.0000E+00
    -10.430  0.0000E+00  0.0000E+00
    -10.363  0.0000E+00  0.0000E+00
    -10.297  0.0000E+00  0.0000E+00
    -10.230  0.0000E+00  0.0000E+00
    -10.163  0.0000E+00  0.0000E+00
    -10.096  0.0000E+00  0.0000E+00
    -10.029  0.0000E+00  0.0000E+00
     -9.963  0.0000E+00  0.0000E+00
     -9.896  0.0000E+00  0.0000E+00
     -9.829  0.0000E+00  0.0000E+00
     -9.762  0.3656E-14  0.2442E-15
     -9.695  0.1496E-12  0.1024E-13
     -9.629  0.4958E-11  0.3414E-12
     -9.562  0.1319E-09  0.9150E-11
     -9.495  0.2813E-08  0.1971E-09
     -9.428  0.4814E-07  0.3413E-08
     -9.361  0.6610E-06  0.4757E-07
     -9.295  0.7283E-05  0.5341E-06
     -9.228  0.6441E-04  0.4837E-05
     -9.161  0.4572E-03  0.3538E-04
     -9.094  0.2605E-02  0.2094E-03
     -9.027  0.1192E-01  0.1006E-02
     -8.961  0.4380E-01  0.3932E-02
     -8.894  0.1292E+00  0.1257E-01
     -8.827  0.3063E+00  0.3303E-01
     -8.760  0.5830E+00  0.7197E-01
     -8.693  0.8913E+00  0.1315E+00
     -8.627  0.1095E+01  0.2046E+00
     -8.560  0.1080E+01  0.2768E+00
     -8.493  0.8560E+00  0.3340E+00
     -8.426  0.5449E+00  0.3704E+00
     -8.359  0.2787E+00  0.3890E+00
     -8.292  0.1145E+00  0.3966E+00
     -8.226  0.3776E-01  0.3992E+00
     -8.159  0.1000E-01  0.3998E+00
     -8.092  0.2128E-02  0.4000E+00
     -8.025  0.3635E-03  0.4000E+00
     -7.958  0.4983E-04  0.4000E+00
     -7.892  0.5485E-05  0.4000E+00
     -7.825  0.4845E-06  0.4000E+00
     -7.758  0.3434E-07  0.4000E+00
     -7.691  0.1953E-08  0.4000E+00
     -7.624  0.8909E-10  0.4000E+00
     -7.558  0.3260E-11  0.4000E+00
     -7.491  0.9573E-13  0.4000E+00
     -7.424  0.3656E-14  0.4000E+00
     -7.357  0.3756E-13  0.4000E+00
     -7.290  0.1360E-11  0.4000E+00
     -7.224  0.3931E-10  0.4000E+00
     -7.157  0.9112E-09  0.4000E+00
     -7.090  0.1694E-07  0.4000E+00
     -7.023  0.2528E-06  0.4000E+00
     -6.956  0.3026E-05  0.4000E+00
     -6.890  0.2907E-04  0.4000E+00
     -6.823  0.2242E-03  0.4000E+00
     -6.756  0.1388E-02  0.4001E+00
     -6.689  0.6897E-02  0.4006E+00
     -6.622  0.2753E-01  0.4024E+00
     -6.556  0.8821E-01  0.4083E+00
     -6.489  0.2270E+00  0.4235E+00
     -6.422  0.4693E+00  0.4548E+00
     -6.355  0.7793E+00  0.5069E+00
     -6.288  0.1040E+01  0.5763E+00
     -6.222  0.1114E+01  0.6507E+00
     -6.155  0.9587E+00  0.7148E+00
     -6.088  0.6628E+00  0.7591E+00
     -6.021  0.3681E+00  0.7836E+00
     -5.954  0.1642E+00  0.7946E+00
     -5.888  0.5884E-01  0.7986E+00
     -5.821  0.1693E-01  0.7997E+00
     -5.754  0.3912E-02  0.7999E+00
     -5.687  0.7258E-03  0.8000E+00
     -5.620  0.1081E-03  0.8000E+00
     -5.554  0.1293E-04  0.8000E+00
     -5.487  0.1240E-05  0.8000E+00
     -5.420  0.9552E-07  0.8000E+00
     -5.353  0.5902E-08  0.8000E+00
     -5.286  0.2926E-09  0.8000E+00
     -5.220  0.1163E-10  0.8000E+00
     -5.153  0.3709E-12  0.8000E+00
     -5.086  0.9307E-14  0.8000E+00
     -5.019  0.0000E+00  0.8000E+00
     -4.952  0.0000E+00  0.8000E+00
     -4.885  0.0000E+00  0.8000E+00
     -4.819  0.0000E+00  0.8000E+00
     -4.752  0.0000E+00  0.8000E+00
     -4.685  0.0000E+00  0.8000E+00
     -4.618  0.0000E+00  0.8000E+00
     -4.551  0.0000E+00  0.8000E+00
     -4.485  0.0000E+00  0.8000E+00
     -4.418  0.0000E+00  0.8000E+00
     -4.351  0.0000E+00  0.8000E+00
     -4.284  0.0000E+00  0.8000E+00
     -4.217  0.0000E+00  0.8000E+00
     -4.151  0.0000E+00  0.8000E+00
     -4.084  0.0000E+00  0.8000E+00
     -4.017  0.0000E+00  0.8000E+00
     -3.950  0.0000E+00  0.8000E+00
     -3.883  0.0000E+00  0.8000E+00
     -3.817  0.0000E+00  0.8000E+00
     -3.750  0.0000E+00  0.8000E+00
     -3.683  0.0000E+00  0.8000E+00
     -3.616  0.0000E+00  0.8000E+00
     -3.549  0.0000E+00  0.8000E+00
     -3.483  0.0000E+00  0.8000E+00
     -3.416  0.3324E-15  0.8000E+00
     -3.349  0.1130E-13  0.8000E+00
     -3.282  0.4371E-12  0.8000E+00
     -3.215  0.1356E-10  0.8000E+00
     -3.149  0.3377E-09  0.8000E+00
     -3.082  0.6743E-08  0.8000E+00
     -3.015  0.1080E-06  0.8000E+00
     -2.948  0.1389E-05  0.8000E+00
     -2.881  0.1432E-04  0.8000E+00
     -2.815  0.1186E-03  0.8000E+00
     -2.748  0.7882E-03  0.8001E+00
     -2.681  0.4206E-02  0.8003E+00
     -2.614  0.1802E-01  0.8015E+00
     -2.547  0.6199E-01  0.8057E+00
     -2.481  0.1713E+00  0.8171E+00
     -2.414  0.3801E+00  0.8425E+00
     -2.347  0.6775E+00  0.8878E+00
     -2.280  0.9700E+00  0.9526E+00
     -2.213  0.1116E+01  0.1027E+01
     -2.147  0.1031E+01  0.1096E+01
     -2.080  0.7650E+00  0.1147E+01
     -2.013  0.4561E+00  0.1178E+01
     -1.946  0.2184E+00  0.1192E+01
     -1.879  0.8400E-01  0.1198E+01
     -1.813  0.2595E-01  0.1199E+01
     -1.746  0.6437E-02  0.1200E+01
     -1.679  0.1282E-02  0.1200E+01
     -1.612  0.2050E-03  0.1200E+01
     -1.545  0.2632E-04  0.1200E+01
     -1.479  0.2712E-05  0.1200E+01
     -1.412  0.2243E-06  0.1200E+01
     -1.345  0.1488E-07  0.1200E+01
     -1.278  0.7921E-09  0.1200E+01
     -1.211  0.3383E-10  0.1200E+01
     -1.144  0.1159E-11  0.1200E+01
     -1.078  0.3191E-13  0.1200E+01
     -1.011  0.6648E-15  0.1200E+01
     -0.944  0.0000E+00  0.1200E+01
     -0.877  0.0000E+00  0.1200E+01
     -0.810  0.0000E+00  0.1200E+01
     -0.744  0.0000E+00  0.1200E+01
     -0.677  0.0000E+00  0.1200E+01
     -0.610  0.0000E+00  0.1200E+01
     -0.543  0.0000E+00  0.1200E+01
     -0.476  0.0000E+00  0.1200E+01
     -0.410  0.0000E+00  0.1200E+01
     -0.343  0.0000E+00  0.1200E+01
     -0.276  0.0000E+00  0.1200E+01
     -0.209  0.0000E+00  0.1200E+01
     -0.142  0.0000E+00  0.1200E+01
     -0.076  0.0000E+00  0.1200E+01
     -0.009  0.0000E+00  0.1200E+01
      0.058  0.0000E+00  0.1200E+01
      0.125  0.0000E+00  0.1200E+01
      0.192  0.0000E+00  0.1200E+01
      0.258  0.0000E+00  0.1200E+01
      0.325  0.0000E+00  0.1200E+01
      0.392  0.0000E+00  0.1200E+01
      0.459  0.0000E+00  0.1200E+01
      0.526  0.0000E+00  0.1200E+01
      0.592  0.0000E+00  0.1200E+01
      0.659  0.0000E+00  0.1200E+01
      0.726  0.0000E+00  0.1200E+01
      0.793  0.0000E+00  0.1200E+01
      0.860  0.0000E+00  0.1200E+01
      0.926  0.0000E+00  0.1200E+01
      0.993  0.0000E+00  0.1200E+01
      1.060  0.0000E+00  0.1200E+01
      1.127  0.0000E+00  0.1200E+01
      1.194  0.0000E+00  0.1200E+01
      1.260  0.0000E+00  0.1200E+01
      1.327  0.0000E+00  0.1200E+01
      1.394  0.0000E+00  0.1200E+01
      1.461  0.0000E+00  0.1200E+01
      1.528  0.0000E+00  0.1200E+01
      1.594  0.0000E+00  0.1200E+01
      1.661  0.0000E+00  0.1200E+01
      1.728  0.0000E+00  0.1200E+01
      1.795  0.0000E+00  0.1200E+01
      1.862  0.0000E+00  0.1200E+01
      1.928  0.0000E+00  0.1200E+01
      1.995  0.0000E+00  0.1200E+01
      2.062  0.0000E+00  0.1200E+01
      2.129  0.0000E+00  0.1200E+01
      2.196  0.0000E+00  0.1200E+01
      2.263  0.0000E+00  0.1200E+01
      2.329  0.0000E+00  0.1200E+01
      2.396  0.0000E+00  0.1200E+01
      2.463  0.0000E+00  0.1200E+01
      2.530  0.0000E+00  0.1200E+01
      2.597  0.0000E+00  0.1200E+01
      2.663  0.0000E+00  0.1200E+01
      2.730  0.0000E+00  0.1200E+01
      2.797  0.0000E+00  0.1200E+01
      2.864  0.0000E+00  0.1200E+01
      2.931  0.0000E+00  0.1200E+01
      2.997  0.0000E+00  0.1200E+01
      3.064  0.0000E+00  0.1200E+01
      3.131  0.0000E+00  0.1200E+01
      3.198  0.0000E+00  0.1200E+01
      3.265  0.0000E+00  0.1200E+01
      3.331  0.0000E+00  0.1200E+01
      3.398  0.0000E+00  0.1200E+01
      3.465  0.0000E+00  0.1200E+01
      3.532  0.0000E+00  0.1200E+01
      3.599  0.0000E+00  0.1200E+01
      3.665  0.0000E+00  0.1200E+01
      3.732  0.0000E+00  0.1200E+01
      3.799  0.0000E+00  0.1200E+01
      3.866  0.0000E+00  0.1200E+01
      3.933  0.0000E+00  0.1200E+01
      3.999  0.0000E+00  0.1200E+01
      4.066  0.0000E+00  0.1200E+01
      4.133  0.0000E+00  0.1200E+01
      4.200  0.0000E+00  0.1200E+01
      4.267  0.3324E-15  0.1200E+01
      4.333  0.1097E-13  0.1200E+01
      4.400  0.4264E-12  0.1200E+01
      4.467  0.1326E-10  0.1200E+01
      4.534  0.3305E-09  0.1200E+01
      4.601  0.6611E-08  0.1200E+01
      4.667  0.1061E-06  0.1200E+01
      4.734  0.1365E-05  0.1200E+01
      4.801  0.1411E-04  0.1200E+01
      4.868  0.1170E-03  0.1200E+01
      4.935  0.7786E-03  0.1200E+01
      5.001  0.4161E-02  0.1200E+01
      5.068  0.1785E-01  0.1202E+01
      5.135  0.6151E-01  0.1206E+01
      5.202  0.1702E+00  0.1217E+01
      5.269  0.3783E+00  0.1242E+01
      5.335  0.6753E+00  0.1287E+01
      5.402  0.9683E+00  0.1352E+01
      5.469  0.1115E+01  0.1427E+01
      5.536  0.1032E+01  0.1496E+01
      5.603  0.7671E+00  0.1547E+01
      5.670  0.4580E+00  0.1577E+01
      5.736  0.2197E+00  0.1592E+01
      5.803  0.8462E-01  0.1598E+01
      5.870  0.2618E-01  0.1599E+01
      5.937  0.6504E-02  0.1600E+01
      6.004  0.1297E-02  0.1600E+01
      6.070  0.2078E-03  0.1600E+01
      6.137  0.2672E-04  0.1600E+01
      6.204  0.2832E-05  0.1600E+01
      6.271  0.1225E-05  0.1600E+01
      6.338  0.1061E-04  0.1600E+01
      6.404  0.9033E-04  0.1600E+01
      6.471  0.6184E-03  0.1600E+01
      6.538  0.3399E-02  0.1600E+01
      6.605  0.1500E-01  0.1601E+01
      6.672  0.5315E-01  0.1605E+01
      6.738  0.1513E+00  0.1615E+01
      6.805  0.3458E+00  0.1638E+01
      6.872  0.6351E+00  0.1680E+01
      6.939  0.9382E+00  0.1743E+01
      7.006  0.1119E+01  0.1818E+01
      7.072  0.1093E+01  0.1891E+01
      7.139  0.9211E+00  0.1952E+01
      7.206  0.7740E+00  0.2004E+01
      7.273  0.7893E+00  0.2057E+01
      7.340  0.9528E+00  0.2120E+01
      7.406  0.1111E+01  0.2195E+01
      7.473  0.1103E+01  0.2268E+01
      7.540  0.8929E+00  0.2328E+01
      7.607  0.5832E+00  0.2367E+01
      7.674  0.3063E+00  0.2387E+01
      7.740  0.1292E+00  0.2396E+01
      7.807  0.4380E-01  0.2399E+01
      7.874  0.1192E-01  0.2400E+01
      7.941  0.2605E-02  0.2400E+01
      8.008  0.4572E-03  0.2400E+01
      8.074  0.6441E-04  0.2400E+01
      8.141  0.7283E-05  0.2400E+01
      8.208  0.6610E-06  0.2400E+01
      8.275  0.4814E-07  0.2400E+01
      8.342  0.2813E-08  0.2400E+01
      8.408  0.1319E-09  0.2400E+01
      8.475  0.4958E-11  0.2400E+01
      8.542  0.1489E-12  0.2400E+01
      8.609  0.3989E-14  0.2400E+01
      8.676  0.0000E+00  0.2400E+01
      8.742  0.0000E+00  0.2400E+01
      8.809  0.0000E+00  0.2400E+01
      8.876  0.0000E+00  0.2400E+01
      8.943  0.0000E+00  0.2400E+01
      9.010  0.0000E+00  0.2400E+01
      9.076  0.0000E+00  0.2400E+01
      9.143  0.0000E+00  0.2400E+01
      9.210  0.0000E+00  0.2400E+01
      9.277  0.0000E+00  0.2400E+01
      9.344  0.0000E+00  0.2400E+01
      9.411  0.0000E+00  0.2400E+01
