   3   3   0   0
  0.3669010E+03  0.1032500E-08  0.1032500E-08  0.1032500E-08  0.5000000E-15
   1.0000000000000000E-004
  CAR 
 unknown system                          
      2.63186822    -10.27258916  301     -6.40125063      1.00000000
    -10.273  0.0000E+00  0.0000E+00
    -10.230  0.0000E+00  0.0000E+00
    -10.187  0.0000E+00  0.0000E+00
    -10.144  0.0000E+00  0.0000E+00
    -10.101  0.0000E+00  0.0000E+00
    -10.058  0.0000E+00  0.0000E+00
    -10.015  0.0000E+00  0.0000E+00
     -9.971  0.0000E+00  0.0000E+00
     -9.928  0.0000E+00  0.0000E+00
     -9.885  0.0000E+00  0.0000E+00
     -9.842  0.0000E+00  0.0000E+00
     -9.799  0.0000E+00  0.0000E+00
     -9.756  0.0000E+00  0.0000E+00
     -9.713  0.0000E+00  0.0000E+00
     -9.670  0.0000E+00  0.0000E+00
     -9.627  0.0000E+00  0.0000E+00
     -9.584  0.0000E+00  0.0000E+00
     -9.541  0.0000E+00  0.0000E+00
     -9.498  0.0000E+00  0.0000E+00
     -9.455  0.2581E-16  0.1110E-17
     -9.412  0.1549E-15  0.7772E-17
     -9.369  0.1884E-14  0.8882E-16
     -9.326  0.1954E-13  0.9293E-15
     -9.283  0.1854E-12  0.8906E-14
     -9.240  0.1605E-11  0.7795E-13
     -9.197  0.1267E-10  0.6230E-12
     -9.154  0.9125E-10  0.4548E-11
     -9.111  0.5994E-09  0.3033E-10
     -9.068  0.3592E-08  0.1848E-09
     -9.025  0.1963E-07  0.1029E-08
     -8.982  0.9789E-07  0.5240E-08
     -8.939  0.4452E-06  0.2439E-07
     -8.896  0.1847E-05  0.1039E-06
     -8.853  0.6992E-05  0.4046E-06
     -8.810  0.2414E-04  0.1443E-05
     -8.767  0.7604E-04  0.4714E-05
     -8.724  0.2185E-03  0.1411E-04
     -8.681  0.5727E-03  0.3875E-04
     -8.638  0.1369E-02  0.9766E-04
     -8.595  0.2987E-02  0.2262E-03
     -8.552  0.5945E-02  0.4819E-03
     -8.509  0.1079E-01  0.9462E-03
     -8.466  0.1788E-01  0.1715E-02
     -8.423  0.2701E-01  0.2877E-02
     -8.380  0.3723E-01  0.4478E-02
     -8.337  0.4681E-01  0.6492E-02
     -8.294  0.5370E-01  0.8802E-02
     -8.251  0.5620E-01  0.1122E-01
     -8.208  0.5366E-01  0.1353E-01
     -8.165  0.4674E-01  0.1554E-01
     -8.122  0.3714E-01  0.1714E-01
     -8.079  0.2692E-01  0.1829E-01
     -8.036  0.1780E-01  0.1906E-01
     -7.993  0.1074E-01  0.1952E-01
     -7.950  0.5915E-02  0.1978E-01
     -7.907  0.2981E-02  0.1990E-01
     -7.864  0.1401E-02  0.1996E-01
     -7.821  0.6934E-03  0.1999E-01
     -7.778  0.5617E-03  0.2002E-01
     -7.735  0.9424E-03  0.2006E-01
     -7.692  0.2011E-02  0.2015E-01
     -7.649  0.4162E-02  0.2032E-01
     -7.606  0.7926E-02  0.2067E-01
     -7.563  0.1379E-01  0.2126E-01
     -7.520  0.2189E-01  0.2220E-01
     -7.477  0.3169E-01  0.2356E-01
     -7.434  0.4187E-01  0.2536E-01
     -7.391  0.5046E-01  0.2753E-01
     -7.348  0.5547E-01  0.2992E-01
     -7.305  0.5564E-01  0.3231E-01
     -7.262  0.5091E-01  0.3450E-01
     -7.219  0.4250E-01  0.3633E-01
     -7.176  0.3237E-01  0.3772E-01
     -7.133  0.2249E-01  0.3869E-01
     -7.089  0.1425E-01  0.3930E-01
     -7.046  0.8241E-02  0.3966E-01
     -7.003  0.4347E-02  0.3985E-01
     -6.960  0.2092E-02  0.3994E-01
     -6.917  0.9183E-03  0.3998E-01
     -6.874  0.3678E-03  0.3999E-01
     -6.831  0.1344E-03  0.4000E-01
     -6.788  0.4478E-04  0.4000E-01
     -6.745  0.1361E-04  0.4000E-01
     -6.702  0.3776E-05  0.4000E-01
     -6.659  0.9552E-06  0.4000E-01
     -6.616  0.2205E-06  0.4000E-01
     -6.573  0.4642E-07  0.4000E-01
     -6.530  0.8914E-08  0.4000E-01
     -6.487  0.1562E-08  0.4000E-01
     -6.444  0.2496E-09  0.4000E-01
     -6.401  0.3638E-10  0.4000E-01
     -6.358  0.4838E-11  0.4000E-01
     -6.315  0.5867E-12  0.4000E-01
     -6.272  0.6494E-13  0.4000E-01
     -6.229  0.6607E-14  0.4000E-01
     -6.186  0.5678E-15  0.4000E-01
     -6.143  0.5162E-16  0.4000E-01
     -6.100  0.0000E+00  0.4000E-01
     -6.057  0.0000E+00  0.4000E-01
     -6.014  0.0000E+00  0.4000E-01
     -5.971  0.0000E+00  0.4000E-01
     -5.928  0.0000E+00  0.4000E-01
     -5.885  0.0000E+00  0.4000E-01
     -5.842  0.0000E+00  0.4000E-01
     -5.799  0.0000E+00  0.4000E-01
     -5.756  0.0000E+00  0.4000E-01
     -5.713  0.0000E+00  0.4000E-01
     -5.670  0.0000E+00  0.4000E-01
     -5.627  0.0000E+00  0.4000E-01
     -5.584  0.0000E+00  0.4000E-01
     -5.541  0.0000E+00  0.4000E-01
     -5.498  0.0000E+00  0.4000E-01
     -5.455  0.0000E+00  0.4000E-01
     -5.412  0.0000E+00  0.4000E-01
     -5.369  0.0000E+00  0.4000E-01
     -5.326  0.0000E+00  0.4000E-01
     -5.283  0.0000E+00  0.4000E-01
     -5.240  0.0000E+00  0.4000E-01
     -5.197  0.0000E+00  0.4000E-01
     -5.154  0.0000E+00  0.4000E-01
     -5.111  0.0000E+00  0.4000E-01
     -5.068  0.0000E+00  0.4000E-01
     -5.025  0.0000E+00  0.4000E-01
     -4.982  0.0000E+00  0.4000E-01
     -4.939  0.0000E+00  0.4000E-01
     -4.896  0.0000E+00  0.4000E-01
     -4.853  0.0000E+00  0.4000E-01
     -4.810  0.0000E+00  0.4000E-01
     -4.767  0.0000E+00  0.4000E-01
     -4.724  0.0000E+00  0.4000E-01
     -4.681  0.0000E+00  0.4000E-01
     -4.638  0.0000E+00  0.4000E-01
     -4.595  0.0000E+00  0.4000E-01
     -4.552  0.0000E+00  0.4000E-01
     -4.509  0.0000E+00  0.4000E-01
     -4.466  0.0000E+00  0.4000E-01
     -4.423  0.0000E+00  0.4000E-01
     -4.380  0.0000E+00  0.4000E-01
     -4.337  0.0000E+00  0.4000E-01
     -4.294  0.0000E+00  0.4000E-01
     -4.251  0.0000E+00  0.4000E-01
     -4.207  0.0000E+00  0.4000E-01
     -4.164  0.0000E+00  0.4000E-01
     -4.121  0.0000E+00  0.4000E-01
     -4.078  0.0000E+00  0.4000E-01
     -4.035  0.0000E+00  0.4000E-01
     -3.992  0.0000E+00  0.4000E-01
     -3.949  0.0000E+00  0.4000E-01
     -3.906  0.0000E+00  0.4000E-01
     -3.863  0.0000E+00  0.4000E-01
     -3.820  0.0000E+00  0.4000E-01
     -3.777  0.0000E+00  0.4000E-01
     -3.734  0.0000E+00  0.4000E-01
     -3.691  0.0000E+00  0.4000E-01
     -3.648  0.0000E+00  0.4000E-01
     -3.605  0.0000E+00  0.4000E-01
     -3.562  0.0000E+00  0.4000E-01
     -3.519  0.0000E+00  0.4000E-01
     -3.476  0.0000E+00  0.4000E-01
     -3.433  0.0000E+00  0.4000E-01
     -3.390  0.0000E+00  0.4000E-01
     -3.347  0.0000E+00  0.4000E-01
     -3.304  0.0000E+00  0.4000E-01
     -3.261  0.0000E+00  0.4000E-01
     -3.218  0.0000E+00  0.4000E-01
     -3.175  0.0000E+00  0.4000E-01
     -3.132  0.0000E+00  0.4000E-01
     -3.089  0.0000E+00  0.4000E-01
     -3.046  0.0000E+00  0.4000E-01
     -3.003  0.0000E+00  0.4000E-01
     -2.960  0.0000E+00  0.4000E-01
     -2.917  0.0000E+00  0.4000E-01
     -2.874  0.0000E+00  0.4000E-01
     -2.831  0.0000E+00  0.4000E-01
     -2.788  0.0000E+00  0.4000E-01
     -2.745  0.0000E+00  0.4000E-01
     -2.702  0.0000E+00  0.4000E-01
     -2.659  0.1032E-15  0.4000E-01
     -2.616  0.1291E-14  0.4000E-01
     -2.573  0.1383E-13  0.4000E-01
     -2.530  0.1368E-12  0.4000E-01
     -2.487  0.1234E-11  0.4000E-01
     -2.444  0.1015E-10  0.4000E-01
     -2.401  0.7620E-10  0.4000E-01
     -2.358  0.5216E-09  0.4000E-01
     -2.315  0.3257E-08  0.4000E-01
     -2.272  0.1855E-07  0.4000E-01
     -2.229  0.9639E-07  0.4000E-01
     -2.186  0.4568E-06  0.4000E-01
     -2.143  0.1975E-05  0.4000E-01
     -2.100  0.7790E-05  0.4000E-01
     -2.057  0.2803E-04  0.4000E-01
     -2.014  0.9198E-04  0.4001E-01
     -1.971  0.2754E-03  0.4002E-01
     -1.928  0.7522E-03  0.4005E-01
     -1.885  0.1874E-02  0.4013E-01
     -1.842  0.4260E-02  0.4031E-01
     -1.799  0.8835E-02  0.4069E-01
     -1.756  0.1671E-01  0.4141E-01
     -1.713  0.2884E-01  0.4265E-01
     -1.670  0.4541E-01  0.4461E-01
     -1.627  0.6522E-01  0.4741E-01
     -1.584  0.8546E-01  0.5109E-01
     -1.541  0.1021E+00  0.5548E-01
     -1.498  0.1114E+00  0.6027E-01
     -1.455  0.1108E+00  0.6504E-01
     -1.412  0.1006E+00  0.6937E-01
     -1.369  0.8328E-01  0.7295E-01
     -1.325  0.6290E-01  0.7565E-01
     -1.282  0.4334E-01  0.7752E-01
     -1.239  0.2725E-01  0.7869E-01
     -1.196  0.1563E-01  0.7936E-01
     -1.153  0.8176E-02  0.7971E-01
     -1.110  0.3902E-02  0.7988E-01
     -1.067  0.1699E-02  0.7996E-01
     -1.024  0.6749E-03  0.7998E-01
     -0.981  0.2446E-03  0.8000E-01
     -0.938  0.8096E-04  0.8000E-01
     -0.895  0.2493E-04  0.8000E-01
     -0.852  0.8969E-05  0.8000E-01
     -0.809  0.1013E-04  0.8000E-01
     -0.766  0.2917E-04  0.8000E-01
     -0.723  0.8952E-04  0.8001E-01
     -0.680  0.2535E-03  0.8002E-01
     -0.637  0.6555E-03  0.8004E-01
     -0.594  0.1546E-02  0.8011E-01
     -0.551  0.3328E-02  0.8025E-01
     -0.508  0.6532E-02  0.8054E-01
     -0.465  0.1170E-01  0.8104E-01
     -0.422  0.1911E-01  0.8186E-01
     -0.379  0.2849E-01  0.8309E-01
     -0.336  0.3874E-01  0.8475E-01
     -0.293  0.4805E-01  0.8682E-01
     -0.250  0.5438E-01  0.8916E-01
     -0.207  0.5614E-01  0.9157E-01
     -0.164  0.5288E-01  0.9385E-01
     -0.121  0.4543E-01  0.9580E-01
     -0.078  0.3561E-01  0.9733E-01
     -0.035  0.2547E-01  0.9843E-01
      0.008  0.1662E-01  0.9914E-01
      0.051  0.9895E-02  0.9957E-01
      0.094  0.5392E-02  0.9980E-01
      0.137  0.2734E-02  0.9992E-01
      0.180  0.1418E-02  0.9998E-01
      0.223  0.1063E-02  0.1000E+00
      0.266  0.1546E-02  0.1001E+00
      0.309  0.3032E-02  0.1002E+00
      0.352  0.5931E-02  0.1005E+00
      0.395  0.1075E-01  0.1009E+00
      0.438  0.1780E-01  0.1017E+00
      0.481  0.2692E-01  0.1029E+00
      0.524  0.3714E-01  0.1045E+00
      0.567  0.4674E-01  0.1065E+00
      0.610  0.5366E-01  0.1088E+00
      0.653  0.5620E-01  0.1112E+00
      0.696  0.5370E-01  0.1135E+00
      0.739  0.4681E-01  0.1155E+00
      0.782  0.3723E-01  0.1171E+00
      0.825  0.2701E-01  0.1183E+00
      0.868  0.1788E-01  0.1191E+00
      0.911  0.1079E-01  0.1195E+00
      0.954  0.5945E-02  0.1198E+00
      0.997  0.2987E-02  0.1199E+00
      1.040  0.1369E-02  0.1200E+00
      1.083  0.5727E-03  0.1200E+00
      1.126  0.2185E-03  0.1200E+00
      1.169  0.7604E-04  0.1200E+00
      1.212  0.2414E-04  0.1200E+00
      1.255  0.6992E-05  0.1200E+00
      1.298  0.1847E-05  0.1200E+00
      1.341  0.4452E-06  0.1200E+00
      1.384  0.9789E-07  0.1200E+00
      1.427  0.1963E-07  0.1200E+00
      1.470  0.3592E-08  0.1200E+00
      1.513  0.5994E-09  0.1200E+00
      1.556  0.9125E-10  0.1200E+00
      1.600  0.1267E-10  0.1200E+00
      1.643  0.1605E-11  0.1200E+00
      1.686  0.1855E-12  0.1200E+00
      1.729  0.1951E-13  0.1200E+00
      1.772  0.1858E-14  0.1200E+00
      1.815  0.2065E-15  0.1200E+00
      1.858  0.0000E+00  0.1200E+00
      1.901  0.0000E+00  0.1200E+00
      1.944  0.0000E+00  0.1200E+00
      1.987  0.0000E+00  0.1200E+00
      2.030  0.0000E+00  0.1200E+00
      2.073  0.0000E+00  0.1200E+00
      2.116  0.0000E+00  0.1200E+00
      2.159  0.0000E+00  0.1200E+00
      2.202  0.0000E+00  0.1200E+00
      2.245  0.0000E+00  0.1200E+00
      2.288  0.0000E+00  0.1200E+00
      2.331  0.0000E+00  0.1200E+00
      2.374  0.0000E+00  0.1200E+00
      2.417  0.0000E+00  0.1200E+00
      2.460  0.0000E+00  0.1200E+00
      2.503  0.0000E+00  0.1200E+00
      2.546  0.0000E+00  0.1200E+00
      2.589  0.0000E+00  0.1200E+00
      2.632  0.0000E+00  0.1200E+00
