    3    3    5    1
  0.1225332E+02  0.3325000E-09  0.3325000E-09  0.3325000E-09  0.5000000E-15
   1.0000000000000000E-004
  CAR 
 unknown system                          
      4      1      6

  0.1262379E-14  0.1262379E-14  0.1262379E-14  0.1000000E+01
    1       -8.960873   1.000000
    2       -1.345941   1.000000
    3        2.802038   0.000000
    4        4.862433   0.000000
    5        4.862433   0.000000
    6        9.379410   0.000000
