    3    3  100    1
  0.3669010E+03  0.1032500E-08  0.1032500E-08  0.1032500E-08  0.5000000E-15
   1.0000000000000000E-004
  CAR 
 unknown system                          
      4      1      6

  0.1262379E-14  0.1262379E-14  0.1262379E-14  0.1000000E+01
    1       -8.272589   1.000000
    2       -7.346165   1.000000
    3       -1.499980   0.000000
    4       -1.499979   0.000000
    5       -0.235187   0.000000
    6        0.631868   0.000000
