 running on    1 total cores
 running on    1 total cores
 running on    1 total cores
 distrk:  each k-point on    1 cores,    1 groups
 distrk:  each k-point on    1 cores,    1 groups
 distrk:  each k-point on    1 cores,    1 groups
 distr:  one band on    1 cores,    1 groups
 distr:  one band on    1 cores,    1 groups
 distr:  one band on    1 cores,    1 groups
 running on    1 total cores
 distrk:  each k-point on    1 cores,    1 groups
 distr:  one band on    1 cores,    1 groups
 vasp.6.2.1 16May21 (build Dec 20 2021 17:15:01) gamma-only                      
 vasp.6.2.1 16May21 (build Dec 20 2021 17:15:01) gamma-only                      
 vasp.6.2.1 16May21 (build Dec 20 2021 17:15:01) gamma-only                      
 POSCAR found type information on POSCAR H Be
 POSCAR found :  2 types and       3 ions
 scaLAPACK will be used
 vasp.6.2.1 16May21 (build Dec 20 2021 17:15:01) gamma-only                      
 POSCAR found type information on POSCAR H Be
 POSCAR found :  2 types and       3 ions
 scaLAPACK will be used
 POSCAR found type information on POSCAR H Be
 POSCAR found :  2 types and       3 ions
 scaLAPACK will be used
 LDA part: xc-table for Pade appr. of Perdew
 POSCAR found type information on POSCAR H Be
 POSCAR found :  2 types and       3 ions
 scaLAPACK will be used
 LDA part: xc-table for Pade appr. of Perdew
 LDA part: xc-table for Pade appr. of Perdew
 LDA part: xc-table for Pade appr. of Perdew
 found WAVECAR, reading the header
 WAVECAR: different cutoff or change in lattice found
 found WAVECAR, reading the header
 WAVECAR: different cutoff or change in lattice found
 found WAVECAR, reading the header
 WAVECAR: different cutoff or change in lattice found
 found WAVECAR, reading the header
 WAVECAR: different cutoff or change in lattice found
 POSCAR, INCAR and KPOINTS ok, starting setup
 POSCAR, INCAR and KPOINTS ok, starting setup
 POSCAR, INCAR and KPOINTS ok, starting setup
 FFT: planning ...
 POSCAR, INCAR and KPOINTS ok, starting setup
 reading WAVECAR
 the WAVECAR file was read successfully
 FFT: planning ...
 initial charge from wavefunction
 entering main loop
 reading WAVECAR
 the WAVECAR file was read successfully
 FFT: planning ...
       N       E                     dE             d eps       ncg     rms          rms(c)
 initial charge from wavefunction
 entering main loop
 reading WAVECAR
 the WAVECAR file was read successfully
 FFT: planning ...
       N       E                     dE             d eps       ncg     rms          rms(c)
 initial charge from wavefunction
 entering main loop
 reading WAVECAR
 the WAVECAR file was read successfully
       N       E                     dE             d eps       ncg     rms          rms(c)
 initial charge from wavefunction
 entering main loop
       N       E                     dE             d eps       ncg     rms          rms(c)
DAV:   1    -0.389743391644E+02   -0.38974E+02   -0.11010E+03    24   0.306E+01    0.102E+01
DAV:   1    -0.389743391643E+02   -0.38974E+02   -0.11010E+03    24   0.306E+01    0.102E+01
DAV:   1    -0.389743391644E+02   -0.38974E+02   -0.11010E+03    24   0.306E+01    0.102E+01
DAV:   1    -0.389743391644E+02   -0.38974E+02   -0.11010E+03    24   0.306E+01    0.102E+01
DAV:   2    -0.470562872701E+02   -0.80819E+01   -0.16237E+02    24   0.764E+01    0.137E+01
DAV:   2    -0.470562872701E+02   -0.80819E+01   -0.16237E+02    24   0.764E+01    0.137E+01
DAV:   2    -0.470562872701E+02   -0.80819E+01   -0.16237E+02    24   0.764E+01    0.137E+01
DAV:   2    -0.470562872701E+02   -0.80819E+01   -0.16237E+02    24   0.764E+01    0.137E+01
DAV:   3    -0.455162348145E+02    0.15401E+01   -0.11271E+00    24   0.982E+00    0.133E+01
DAV:   3    -0.455162348150E+02    0.15401E+01   -0.11271E+00    24   0.982E+00    0.133E+01
DAV:   3    -0.455162348145E+02    0.15401E+01   -0.11271E+00    24   0.982E+00    0.133E+01
DAV:   3    -0.455162348145E+02    0.15401E+01   -0.11271E+00    24   0.982E+00    0.133E+01
DAV:   4    -0.145880728980E+02    0.30928E+02   -0.24583E+01    18   0.269E+01    0.562E+00
DAV:   4    -0.145880728989E+02    0.30928E+02   -0.24583E+01    18   0.269E+01    0.562E+00
DAV:   4    -0.145880728980E+02    0.30928E+02   -0.24583E+01    18   0.269E+01    0.562E+00
DAV:   4    -0.145880728980E+02    0.30928E+02   -0.24583E+01    18   0.269E+01    0.562E+00
DAV:   5    -0.156444139610E+02   -0.10563E+01   -0.28257E+01    24   0.239E+01    0.135E+01
DAV:   5    -0.156444139607E+02   -0.10563E+01   -0.28257E+01    24   0.239E+01    0.135E+01
DAV:   5    -0.156444139610E+02   -0.10563E+01   -0.28257E+01    24   0.239E+01    0.135E+01
DAV:   5    -0.156444139610E+02   -0.10563E+01   -0.28257E+01    24   0.239E+01    0.135E+01
DAV:   6    -0.112691118999E+02    0.43753E+01   -0.36290E+01    24   0.264E+01    0.253E+00
DAV:   6    -0.112691118994E+02    0.43753E+01   -0.36290E+01    24   0.264E+01    0.253E+00
DAV:   6    -0.112691118999E+02    0.43753E+01   -0.36290E+01    24   0.264E+01    0.253E+00
DAV:   6    -0.112691118999E+02    0.43753E+01   -0.36290E+01    24   0.264E+01    0.253E+00
DAV:   7    -0.144143187269E+02   -0.31452E+01   -0.31523E+01    18   0.416E+01    0.101E+01
DAV:   7    -0.144143190465E+02   -0.31452E+01   -0.31523E+01    18   0.416E+01    0.101E+01
DAV:   7    -0.144143187269E+02   -0.31452E+01   -0.31523E+01    18   0.416E+01DAV:   7    -0.144143187269E+02   -0.31452E+01   -0.31523E+01    18   0.416E+01    0.101E+01
    0.101E+01
DAV:   8    -0.220935194828E+04   -0.21949E+04   -0.28661E+04    24   0.587E+03    0.623E+01
DAV:   8    -0.220935886984E+04   -0.21949E+04   -0.28662E+04    24   0.587E+03    0.623E+01
DAV:   8    -0.220935194828E+04   -0.21949E+04   -0.28661E+04    24   0.587E+03DAV:   8    -0.220935194828E+04   -0.21949E+04   -0.28661E+04    24   0.587E+03    0.623E+01
    0.623E+01
DAV:   9    -0.822028850341E+03    0.13873E+04   -0.40618E+02    12   0.369E+02    0.592E+01
DAV:   9    -0.822030341480E+03    0.13873E+04   -0.40618E+02    12   0.369E+02    0.592E+01
DAV:   9    -0.822028850341E+03    0.13873E+04   -0.40618E+02    12   0.369E+02DAV:   9    -0.822028850341E+03    0.13873E+04   -0.40618E+02    12   0.369E+02    0.592E+01
    0.592E+01
DAV:  10    -0.567835677349E+03    0.25419E+03   -0.38304E+02    12   0.235E+02    0.513E+01
DAV:  10    -0.567819068329E+03    0.25421E+03   -0.38305E+02    12   0.235E+02DAV:  10    -0.567835677349E+03    0.25419E+03   -0.38304E+02    12   0.235E+02DAV:  10    -0.567835677349E+03    0.25419E+03   -0.38304E+02    12   0.235E+02    0.513E+01
    0.513E+01
    0.513E+01
DAV:  11     0.153633557686E+02    0.58320E+03   -0.11600E+03    12   0.253E+02    0.147E+01
DAV:  11     0.153019220974E+02    0.58312E+03   -0.11607E+03    12   0.253E+02DAV:  11     0.153633557686E+02    0.58320E+03   -0.11600E+03    12   0.253E+02DAV:  11     0.153633557686E+02    0.58320E+03   -0.11600E+03    12   0.253E+02    0.147E+01
    0.147E+01
    0.147E+01
DAV:  12    -0.993622193670E+01   -0.25300E+02   -0.25868E+02    24   0.664E+01    0.739E+00
DAV:  12    -0.993622193670E+01   -0.25300E+02   -0.25868E+02    24   0.664E+01DAV:  12    -0.102594712887E+02   -0.25561E+02   -0.25959E+02    24   0.679E+01DAV:  12    -0.993622193670E+01   -0.25300E+02   -0.25868E+02    24   0.664E+01    0.739E+00
    0.748E+00
    0.739E+00
DAV:  13    -0.844780351991E+01    0.14884E+01   -0.13213E+01    24   0.290E+01    0.409E+00
DAV:  13    -0.844780351991E+01    0.14884E+01   -0.13213E+01    24   0.290E+01DAV:  13    -0.844780351991E+01    0.14884E+01   -0.13213E+01    24   0.290E+01DAV:  13    -0.847518701932E+01    0.17843E+01   -0.12590E+01    24   0.283E+01    0.409E+00
    0.409E+00
    0.427E+00
DAV:  14    -0.866470340707E+01   -0.21690E+00   -0.20504E+00    12   0.908E+00    0.389E+00
DAV:  14    -0.882146797496E+01   -0.34628E+00   -0.31473E+00    12   0.100E+01DAV:  14    -0.866470340707E+01   -0.21690E+00   -0.20504E+00    12   0.908E+00    0.465E+00
DAV:  14    -0.866470340707E+01   -0.21690E+00   -0.20504E+00    12   0.908E+00    0.389E+00
    0.389E+00
DAV:  15    -0.959274659194E+01   -0.92804E+00   -0.11287E+00    24   0.525E+00    0.645E+00
DAV:  15    -0.939114512962E+01   -0.56968E+00   -0.38890E-01    24   0.360E+00    0.588E+00
DAV:  15    -0.959274659194E+01   -0.92804E+00   -0.11287E+00    24   0.525E+00    0.645E+00
DAV:  15    -0.959274659194E+01   -0.92804E+00   -0.11287E+00    24   0.525E+00DAV:  16    -0.860638975492E+01    0.98636E+00   -0.65953E+00    24   0.115E+01    0.645E+00
    0.174E+00
DAV:  16    -0.862451421230E+01    0.76663E+00   -0.58835E+00    24   0.110E+01    0.187E+00
DAV:  16    -0.860638975492E+01    0.98636E+00   -0.65953E+00    24   0.115E+01DAV:  17    -0.859737434428E+01    0.90154E-02   -0.27403E-02    12   0.161E+00    0.174E+00
    0.167E+00
DAV:  16    -0.860638975492E+01    0.98636E+00   -0.65953E+00    24   0.115E+01    0.174E+00
DAV:  17    -0.859667032185E+01    0.27844E-01   -0.43224E-02    12   0.178E+00    0.153E+00
DAV:  17    -0.859737434428E+01    0.90154E-02   -0.27403E-02    12   0.161E+00    0.167E+00
DAV:  18    -0.858503694096E+01    0.12337E-01   -0.18653E-01    18   0.229E+00DAV:  17    -0.859737434428E+01    0.90154E-02   -0.27403E-02    12   0.161E+00    0.835E-01
    0.167E+00
DAV:  18    -0.858610134225E+01    0.10569E-01   -0.17232E-01    18   0.217E+00    0.827E-01
DAV:  18    -0.858503694096E+01    0.12337E-01   -0.18653E-01    18   0.229E+00    0.835E-01
DAV:  19    -0.859769369514E+01   -0.12657E-01   -0.15043E-02    18   0.617E-01    0.738E-01
DAV:  18    -0.858503694096E+01    0.12337E-01   -0.18653E-01    18   0.229E+00    0.835E-01
DAV:  19    -0.859832139370E+01   -0.12220E-01   -0.10312E-02    24   0.522E-01    0.734E-01
DAV:  19    -0.859769369514E+01   -0.12657E-01   -0.15043E-02    18   0.617E-01    0.738E-01
DAV:  20    -0.860662002822E+01   -0.89263E-02   -0.94032E-04    12   0.356E-01    0.633E-01
DAV:  19    -0.859769369514E+01   -0.12657E-01   -0.15043E-02    18   0.617E-01    0.738E-01
DAV:  20    -0.860918332301E+01   -0.10862E-01   -0.12016E-03    12   0.413E-01    0.626E-01
DAV:  20    -0.860662002822E+01   -0.89263E-02   -0.94032E-04    12   0.356E-01DAV:  21    -0.861396228920E+01   -0.73423E-02   -0.92337E-04    12   0.281E-01    0.633E-01
    0.607E-01
DAV:  20    -0.860662002822E+01   -0.89263E-02   -0.94032E-04    12   0.356E-01    0.633E-01
DAV:  21    -0.861484145364E+01   -0.56581E-02   -0.60774E-04    12   0.224E-01    0.617E-01
DAV:  21    -0.861396228920E+01   -0.73423E-02   -0.92337E-04    12   0.281E-01DAV:  22    -0.861690924057E+01   -0.29470E-02   -0.29622E-04    12   0.131E-01    0.607E-01
    0.620E-01
DAV:  21    -0.861396228920E+01   -0.73423E-02   -0.92337E-04    12   0.281E-01    0.607E-01
DAV:  22    -0.861789572716E+01   -0.30543E-02   -0.36420E-04    12   0.147E-01    0.626E-01
DAV:  22    -0.861690924057E+01   -0.29470E-02   -0.29622E-04    12   0.131E-01DAV:  23    -0.861583439189E+01    0.10748E-02   -0.19201E-03    12   0.258E-01    0.620E-01
    0.590E-01
DAV:  22    -0.861690924057E+01   -0.29470E-02   -0.29622E-04    12   0.131E-01    0.620E-01
DAV:  23    -0.861632712934E+01    0.15686E-02   -0.21869E-03    12   0.264E-01    0.588E-01
DAV:  23    -0.861583439189E+01    0.10748E-02   -0.19201E-03    12   0.258E-01DAV:  24    -0.861666465961E+01   -0.83027E-03   -0.57275E-05    12   0.683E-02    0.590E-01
    0.585E-01
DAV:  23    -0.861583439189E+01    0.10748E-02   -0.19201E-03    12   0.258E-01    0.590E-01
DAV:  24    -0.861734426236E+01   -0.10171E-02   -0.44508E-05    12   0.679E-02    0.585E-01
DAV:  24    -0.861666465961E+01   -0.83027E-03   -0.57275E-05    12   0.683E-02DAV:  25    -0.861946649889E+01   -0.28018E-02   -0.27129E-04    18   0.139E-01    0.585E-01
    0.595E-01
DAV:  24    -0.861666465961E+01   -0.83027E-03   -0.57275E-05    12   0.683E-02    0.585E-01
DAV:  25    -0.861992750678E+01   -0.25832E-02   -0.25026E-04    18   0.131E-01    0.597E-01
DAV:  26    -0.862075054602E+01   -0.12840E-02   -0.93779E-05    12   0.605E-02DAV:  25    -0.861946649889E+01   -0.28018E-02   -0.27129E-04    18   0.139E-01    0.602E-01
    0.595E-01
DAV:  25    -0.861946649889E+01   -0.28018E-02   -0.27129E-04    18   0.139E-01    0.595E-01
DAV:  26    -0.862131746929E+01   -0.13900E-02   -0.10051E-04    12   0.646E-02    0.604E-01
DAV:  27    -0.862133875886E+01   -0.58821E-03   -0.33771E-05    12   0.426E-02DAV:  26    -0.862075054602E+01   -0.12840E-02   -0.93779E-05    12   0.605E-02    0.610E-01
    0.602E-01
DAV:  26    -0.862075054602E+01   -0.12840E-02   -0.93779E-05    12   0.605E-02    0.602E-01
DAV:  27    -0.862192559377E+01   -0.60812E-03   -0.35763E-05    12   0.427E-02    0.613E-01
DAV:  28    -0.862137958154E+01   -0.40823E-04   -0.11505E-06     6   0.105E-02
DAV:  27    -0.862133875886E+01   -0.58821E-03   -0.33771E-05    12   0.426E-02    0.610E-01
DAV:  27    -0.862133875886E+01   -0.58821E-03   -0.33771E-05    12   0.426E-02    0.610E-01
DAV:  28    -0.862195823684E+01   -0.32643E-04   -0.12316E-06     6   0.105E-02
DAV:  28    -0.862137958154E+01   -0.40823E-04   -0.11505E-06     6   0.105E-02
DAV:  28    -0.862137958154E+01   -0.40823E-04   -0.11505E-06     6   0.105E-02
   1 F= -.86213796E+01 E0= -.86213796E+01  d E =-.862138E+01
 curvature:   0.00 expect dE= 0.000E+00 dE for cont linesearch  0.000E+00
 trial: gam= 0.00000 g(F)=  0.603E-03 g(S)=  0.767E-02 ort = 0.000E+00 (trialstep = 0.100E+01)
 search vector abs. value=  0.828E-02
   1 F= -.86219582E+01 E0= -.86219582E+01  d E =-.862196E+01
 curvature:   0.00 expect dE= 0.000E+00 dE for cont linesearch  0.000E+00
 trial: gam= 0.00000 g(F)=  0.561E-03 g(S)=  0.768E-02 ort = 0.000E+00 (trialstep = 0.100E+01)
 search vector abs. value=  0.824E-02
   1 F= -.86213796E+01 E0= -.86213796E+01  d E =-.862138E+01
 curvature:   0.00 expect dE= 0.000E+00 dE for cont linesearch  0.000E+00
 trial: gam= 0.00000 g(F)=  0.603E-03 g(S)=  0.767E-02 ort = 0.000E+00 (trialstep = 0.100E+01)
 search vector abs. value=  0.828E-02
   1 F= -.86213796E+01 E0= -.86213796E+01  d E =-.862138E+01
 curvature:   0.00 expect dE= 0.000E+00 dE for cont linesearch  0.000E+00
 trial: gam= 0.00000 g(F)=  0.603E-03 g(S)=  0.767E-02 ort = 0.000E+00 (trialstep = 0.100E+01)
 search vector abs. value=  0.828E-02
 bond charge predicted
       N       E                     dE             d eps       ncg     rms          rms(c)
 bond charge predicted
DAV:   1    -0.862699819205E+01   -0.56594E-02   -0.76088E-02    12   0.202E+00    0.708E-01
       N       E                     dE             d eps       ncg     rms          rms(c)
 bond charge predicted
DAV:   2    -0.862261227962E+01    0.43859E-02   -0.13862E-02    12   0.724E-01 bond charge predicted
    0.378E-01
DAV:   1    -0.862768662016E+01   -0.57610E-02   -0.75164E-02    12   0.201E+00    0.711E-01
       N       E                     dE             d eps       ncg     rms          rms(c)
       N       E                     dE             d eps       ncg     rms          rms(c)
DAV:   3    -0.862339564272E+01   -0.78336E-03   -0.15751E-02    18   0.790E-01    0.913E-02
DAV:   2    -0.862280951587E+01    0.48771E-02   -0.14208E-02    12   0.729E-01DAV:   1    -0.862699819205E+01   -0.56594E-02   -0.76088E-02    12   0.202E+00    0.379E-01
    0.708E-01
DAV:   1    -0.862699819205E+01   -0.56594E-02   -0.76088E-02    12   0.202E+00    0.708E-01
DAV:   4    -0.862479300283E+01   -0.13974E-02   -0.61364E-04    12   0.143E-01    0.184E-02
DAV:   3    -0.862341049562E+01   -0.60098E-03   -0.16100E-02    18   0.796E-01DAV:   2    -0.862261227962E+01    0.43859E-02   -0.13862E-02    12   0.724E-01    0.908E-02
    0.378E-01
DAV:   2    -0.862261227962E+01    0.43859E-02   -0.13862E-02    12   0.724E-01    0.378E-01
DAV:   5    -0.862491675245E+01   -0.12375E-03   -0.50751E-05    18   0.434E-02    0.933E-03
DAV:   3    -0.862339564272E+01   -0.78336E-03   -0.15751E-02    18   0.790E-01DAV:   4    -0.862478520433E+01   -0.13747E-02   -0.60649E-04    12   0.143E-01    0.913E-02
    0.188E-02
DAV:   3    -0.862339564272E+01   -0.78336E-03   -0.15751E-02    18   0.790E-01    0.913E-02
DAV:   6    -0.862536864905E+01   -0.45190E-03   -0.17102E-04    18   0.604E-02    0.705E-03
DAV:   4    -0.862479300283E+01   -0.13974E-02   -0.61364E-04    12   0.143E-01    0.184E-02
DAV:   4    -0.862479300283E+01   -0.13974E-02   -0.61364E-04    12   0.143E-01DAV:   5    -0.862490560638E+01   -0.12040E-03   -0.53989E-05    18   0.445E-02    0.184E-02
    0.926E-03
DAV:   7    -0.862550570294E+01   -0.13705E-03   -0.67889E-05    18   0.415E-02    0.156E-02
DAV:   5    -0.862491675245E+01   -0.12375E-03   -0.50751E-05    18   0.434E-02    0.933E-03
DAV:   5    -0.862491675245E+01   -0.12375E-03   -0.50751E-05    18   0.434E-02    0.933E-03
DAV:   6    -0.862535926739E+01   -0.45366E-03   -0.16627E-04    18   0.597E-02    0.708E-03
DAV:   8    -0.862556283748E+01   -0.57135E-04   -0.37458E-05    12   0.296E-02
DAV:   6    -0.862536864905E+01   -0.45190E-03   -0.17102E-04    18   0.604E-02    0.705E-03
DAV:   6    -0.862536864905E+01   -0.45190E-03   -0.17102E-04    18   0.604E-02    0.705E-03
DAV:   7    -0.862549492912E+01   -0.13566E-03   -0.63809E-05    18   0.403E-02    0.148E-02
DAV:   7    -0.862550570294E+01   -0.13705E-03   -0.67889E-05    18   0.415E-02    0.156E-02
DAV:   7    -0.862550570294E+01   -0.13705E-03   -0.67889E-05    18   0.415E-02    0.156E-02
DAV:   8    -0.862555757883E+01   -0.62650E-04   -0.36583E-05    12   0.292E-02
DAV:   8    -0.862556283748E+01   -0.57135E-04   -0.37458E-05    12   0.296E-02
   2 F= -.86255628E+01 E0= -.86255628E+01  d E =-.418326E-02
 trial-energy change:   -0.004183  1 .order   -0.003812   -0.008276    0.000651
 step:   0.9271(harm=  0.9271)  dis= 0.00353  next Energy=    -8.625216 (dE=-0.384E-02)
DAV:   8    -0.862556283748E+01   -0.57135E-04   -0.37458E-05    12   0.296E-02
 bond charge predicted
       N       E                     dE             d eps       ncg     rms          rms(c)
   2 F= -.86255628E+01 E0= -.86255628E+01  d E =-.418326E-02
 trial-energy change:   -0.004183  1 .order   -0.003812   -0.008276    0.000651
 step:   0.9271(harm=  0.9271)  dis= 0.00353  next Energy=    -8.625216 (dE=-0.384E-02)
   2 F= -.86255576E+01 E0= -.86255576E+01  d E =-.359934E-02
 trial-energy change:   -0.003599  1 .order   -0.003788   -0.008239    0.000662
 step:   0.9256(harm=  0.9256)  dis= 0.00341  next Energy=    -8.625771 (dE=-0.381E-02)
   2 F= -.86255628E+01 E0= -.86255628E+01  d E =-.418326E-02
 trial-energy change:   -0.004183  1 .order   -0.003812   -0.008276    0.000651
 step:   0.9271(harm=  0.9271)  dis= 0.00353  next Energy=    -8.625216 (dE=-0.384E-02)
DAV:   1    -0.862562698262E+01   -0.12128E-03   -0.40570E-04    12   0.149E-01    0.127E-02
DAV:   2    -0.862562711389E+01   -0.13127E-06   -0.48436E-06    18   0.140E-02
 bond charge predicted
 bond charge predicted
 bond charge predicted
       N       E                     dE             d eps       ncg     rms          rms(c)
       N       E                     dE             d eps       ncg     rms          rms(c)
       N       E                     dE             d eps       ncg     rms          rms(c)
DAV:   1    -0.862562698262E+01   -0.12128E-03   -0.40570E-04    12   0.149E-01   3 F= -.86256271E+01 E0= -.86256271E+01  d E =-.424753E-02
 curvature:  -0.46 expect dE=-0.948E-04 dE for cont linesearch -0.115E-04
 trial: gam= 0.07934 g(F)=  0.659E-04 g(S)=  0.139E-03 ort =-0.452E-03 (trialstep = 0.985E+00)
 search vector abs. value=  0.185E-03
 reached required accuracy - stopping structural energy minimisation
DAV:   1    -0.862562302159E+01   -0.12809E-03   -0.41304E-04    12   0.150E-01DAV:   1    -0.862562698262E+01   -0.12128E-03   -0.40570E-04    12   0.149E-01    0.127E-02
    0.129E-02
    0.127E-02
 writing wavefunctions
DAV:   2    -0.862562711389E+01   -0.13127E-06   -0.48436E-06    18   0.140E-02
DAV:   2    -0.862562296308E+01    0.58504E-07   -0.48930E-06    18   0.141E-02
DAV:   2    -0.862562711389E+01   -0.13127E-06   -0.48436E-06    18   0.140E-02
   3 F= -.86256271E+01 E0= -.86256271E+01  d E =-.424753E-02
 curvature:  -0.46 expect dE=-0.948E-04 dE for cont linesearch -0.115E-04
 trial: gam= 0.07934 g(F)=  0.659E-04 g(S)=  0.139E-03 ort =-0.452E-03 (trialstep = 0.985E+00)
 search vector abs. value=  0.185E-03
 reached required accuracy - stopping structural energy minimisation
   3 F= -.86256271E+01 E0= -.86256271E+01  d E =-.424753E-02
 curvature:  -0.46 expect dE=-0.948E-04 dE for cont linesearch -0.115E-04
 trial: gam= 0.07934 g(F)=  0.659E-04 g(S)=  0.139E-03 ort =-0.452E-03 (trialstep = 0.985E+00)
 search vector abs. value=  0.185E-03
 reached required accuracy - stopping structural energy minimisation
   3 F= -.86256230E+01 E0= -.86256230E+01  d E =-.366473E-02
 curvature:  -0.46 expect dE=-0.934E-04 dE for cont linesearch -0.115E-04
 trial: gam= 0.07942 g(F)=  0.649E-04 g(S)=  0.137E-03 ort =-0.452E-03 (trialstep = 0.985E+00)
 search vector abs. value=  0.182E-03
 reached required accuracy - stopping structural energy minimisation
 writing wavefunctions
 writing wavefunctions
 writing wavefunctions
