       N       E                     dE             d eps       ncg     rms          rms(c)
DAV:   1    -0.124388080204E+01   -0.12439E+01   -0.93335E+02    12   0.197E+02
DAV:   2    -0.443078308866E+01   -0.31869E+01   -0.31801E+01    24   0.482E+01
DAV:   3    -0.464856349574E+01   -0.21778E+00   -0.21547E+00    12   0.110E+01
DAV:   4    -0.465024222980E+01   -0.16787E-02   -0.16787E-02    12   0.898E-01
DAV:   5    -0.465028683181E+01   -0.44602E-04   -0.44602E-04    12   0.157E-01    0.786E+00
DAV:   6    -0.332426015360E+01    0.13260E+01   -0.56357E+00    12   0.726E+00    0.414E+00
DAV:   7    -0.323678726451E+01    0.87473E-01   -0.21139E-01    12   0.433E+00    0.205E+00
DAV:   8    -0.322078354802E+01    0.16004E-01   -0.17128E-01    12   0.298E+00    0.809E-01
DAV:   9    -0.323057158828E+01   -0.97880E-02   -0.23386E-02    12   0.103E+00    0.844E-01
DAV:  10    -0.322482434566E+01    0.57472E-02   -0.21446E-03    12   0.331E-01    0.193E-01
DAV:  11    -0.322435476369E+01    0.46958E-03   -0.83865E-04    12   0.196E-01    0.500E-02
DAV:  12    -0.322435570807E+01   -0.94438E-06   -0.63309E-05     6   0.745E-02
   1 F= -.32243557E+01 E0= -.31126635E+01  d E =-.322436E+01
       N       E                     dE             d eps       ncg     rms          rms(c)
DAV:   1    -0.683515145565E+01   -0.36108E+01   -0.50939E+01    12   0.540E+01    0.608E+00
DAV:   2    -0.621977637324E+01    0.61538E+00   -0.44012E-01    12   0.399E+00    0.348E+00
DAV:   3    -0.602370161568E+01    0.19607E+00   -0.81318E-01    12   0.529E+00    0.460E-01
DAV:   4    -0.603581000750E+01   -0.12108E-01   -0.92800E-03    12   0.776E-01    0.202E-01
DAV:   5    -0.604155086658E+01   -0.57409E-02   -0.70559E-03    12   0.529E-01    0.463E-02
DAV:   6    -0.604162404042E+01   -0.73174E-04   -0.15397E-04    24   0.862E-02
   2 F= -.60416240E+01 E0= -.60416240E+01  d E =-.281727E+01
       N       E                     dE             d eps       ncg     rms          rms(c)
DAV:   1     0.229100313465E+02    0.28952E+02   -0.23638E+02    12   0.111E+02    0.645E+00
DAV:   2     0.232176660225E+02    0.30763E+00   -0.45890E+00    12   0.218E+01    0.395E+00
DAV:   3     0.234217963331E+02    0.20413E+00   -0.13220E+00    12   0.627E+00    0.605E-01
DAV:   4     0.234393974292E+02    0.17601E-01   -0.62549E-02    12   0.163E+00    0.314E-01
DAV:   5     0.234377620127E+02   -0.16354E-02   -0.53736E-03    12   0.591E-01    0.579E-02
DAV:   6     0.234377241819E+02   -0.37831E-04   -0.70159E-05    12   0.728E-02
   3 F= 0.23437724E+02 E0= 0.23437724E+02  d E =0.266621E+02
       N       E                     dE             d eps       ncg     rms          rms(c)
DAV:   1     0.229100313465E+02    0.28952E+02   -0.23638E+02    12   0.111E+02    0.645E+00
DAV:   2     0.232176660225E+02    0.30763E+00   -0.45890E+00    12   0.218E+01    0.395E+00
DAV:   3     0.234217963331E+02    0.20413E+00   -0.13220E+00    12   0.627E+00    0.605E-01
DAV:   4     0.234393974292E+02    0.17601E-01   -0.62549E-02    12   0.163E+00    0.314E-01
DAV:   5     0.234377620127E+02   -0.16354E-02   -0.53736E-03    12   0.591E-01    0.579E-02
DAV:   6     0.234377241819E+02   -0.37831E-04   -0.70159E-05    12   0.728E-02
   3 F= 0.23437724E+02 E0= 0.23437724E+02  d E =0.266621E+02
       N       E                     dE             d eps       ncg     rms          rms(c)
DAV:   1    -0.672349889629E+01   -0.30161E+02   -0.20724E+02    12   0.101E+02    0.639E+00
DAV:   2    -0.635396362649E+01    0.36954E+00   -0.36516E+00    12   0.152E+01    0.374E+00
DAV:   3    -0.615377871784E+01    0.20018E+00   -0.72227E-01    12   0.503E+00    0.486E-01
DAV:   4    -0.615684029583E+01   -0.30616E-02   -0.16385E-02    12   0.105E+00    0.282E-01
DAV:   5    -0.615812110745E+01   -0.12808E-02   -0.51340E-03    12   0.436E-01    0.455E-02
DAV:   6    -0.615810879021E+01    0.12317E-04   -0.25068E-04    12   0.975E-02
   4 F= -.61581088E+01 E0= -.61581088E+01  d E =-.293375E+01
       N       E                     dE             d eps       ncg     rms          rms(c)
DAV:   1    -0.672349889629E+01   -0.30161E+02   -0.20724E+02    12   0.101E+02    0.639E+00
DAV:   2    -0.635396362649E+01    0.36954E+00   -0.36516E+00    12   0.152E+01    0.374E+00
DAV:   3    -0.615377871784E+01    0.20018E+00   -0.72227E-01    12   0.503E+00    0.486E-01
DAV:   4    -0.615684029583E+01   -0.30616E-02   -0.16385E-02    12   0.105E+00    0.282E-01
DAV:   5    -0.615812110745E+01   -0.12808E-02   -0.51340E-03    12   0.436E-01    0.455E-02
DAV:   6    -0.615810879021E+01    0.12317E-04   -0.25068E-04    12   0.975E-02
   4 F= -.61581088E+01 E0= -.61581088E+01  d E =-.293375E+01
