       N       E                     dE             d eps       ncg     rms          rms(c)
DAV:   1    -0.389743391644E+02   -0.38974E+02   -0.11010E+03    24   0.306E+01    0.102E+01
DAV:   2    -0.470562872701E+02   -0.80819E+01   -0.16237E+02    24   0.764E+01    0.137E+01
DAV:   3    -0.455162348145E+02    0.15401E+01   -0.11271E+00    24   0.982E+00    0.133E+01
DAV:   4    -0.145880728980E+02    0.30928E+02   -0.24583E+01    18   0.269E+01    0.562E+00
DAV:   5    -0.156444139610E+02   -0.10563E+01   -0.28257E+01    24   0.239E+01    0.135E+01
DAV:   6    -0.112691118999E+02    0.43753E+01   -0.36290E+01    24   0.264E+01    0.253E+00
DAV:   7    -0.144143187269E+02   -0.31452E+01   -0.31523E+01    18   0.416E+01    0.101E+01
DAV:   8    -0.220935194828E+04   -0.21949E+04   -0.28661E+04    24   0.587E+03    0.623E+01
DAV:   9    -0.822028850341E+03    0.13873E+04   -0.40618E+02    12   0.369E+02    0.592E+01
DAV:  10    -0.567835677349E+03    0.25419E+03   -0.38304E+02    12   0.235E+02    0.513E+01
DAV:  11     0.153633557686E+02    0.58320E+03   -0.11600E+03    12   0.253E+02    0.147E+01
DAV:  12    -0.993622193670E+01   -0.25300E+02   -0.25868E+02    24   0.664E+01    0.739E+00
DAV:  13    -0.844780351991E+01    0.14884E+01   -0.13213E+01    24   0.290E+01    0.409E+00
DAV:  14    -0.866470340707E+01   -0.21690E+00   -0.20504E+00    12   0.908E+00    0.389E+00
DAV:  15    -0.959274659194E+01   -0.92804E+00   -0.11287E+00    24   0.525E+00    0.645E+00
DAV:  16    -0.860638975492E+01    0.98636E+00   -0.65953E+00    24   0.115E+01    0.174E+00
DAV:  17    -0.859737434428E+01    0.90154E-02   -0.27403E-02    12   0.161E+00    0.167E+00
DAV:  18    -0.858503694096E+01    0.12337E-01   -0.18653E-01    18   0.229E+00    0.835E-01
DAV:  19    -0.859769369514E+01   -0.12657E-01   -0.15043E-02    18   0.617E-01    0.738E-01
DAV:  20    -0.860662002822E+01   -0.89263E-02   -0.94032E-04    12   0.356E-01    0.633E-01
DAV:  21    -0.861396228920E+01   -0.73423E-02   -0.92337E-04    12   0.281E-01    0.607E-01
DAV:  22    -0.861690924057E+01   -0.29470E-02   -0.29622E-04    12   0.131E-01    0.620E-01
DAV:  23    -0.861583439189E+01    0.10748E-02   -0.19201E-03    12   0.258E-01    0.590E-01
DAV:  24    -0.861666465961E+01   -0.83027E-03   -0.57275E-05    12   0.683E-02    0.585E-01
DAV:  25    -0.861946649889E+01   -0.28018E-02   -0.27129E-04    18   0.139E-01    0.595E-01
DAV:  26    -0.862075054602E+01   -0.12840E-02   -0.93779E-05    12   0.605E-02    0.602E-01
DAV:  27    -0.862133875886E+01   -0.58821E-03   -0.33771E-05    12   0.426E-02    0.610E-01
DAV:  28    -0.862137958154E+01   -0.40823E-04   -0.11505E-06     6   0.105E-02
   1 F= -.86213796E+01 E0= -.86213796E+01  d E =-.862138E+01
       N       E                     dE             d eps       ncg     rms          rms(c)
DAV:   1    -0.862699819205E+01   -0.56594E-02   -0.76088E-02    12   0.202E+00    0.708E-01
DAV:   2    -0.862261227962E+01    0.43859E-02   -0.13862E-02    12   0.724E-01    0.378E-01
DAV:   3    -0.862339564272E+01   -0.78336E-03   -0.15751E-02    18   0.790E-01    0.913E-02
DAV:   4    -0.862479300283E+01   -0.13974E-02   -0.61364E-04    12   0.143E-01    0.184E-02
DAV:   5    -0.862491675245E+01   -0.12375E-03   -0.50751E-05    18   0.434E-02    0.933E-03
DAV:   6    -0.862536864905E+01   -0.45190E-03   -0.17102E-04    18   0.604E-02    0.705E-03
DAV:   7    -0.862550570294E+01   -0.13705E-03   -0.67889E-05    18   0.415E-02    0.156E-02
DAV:   8    -0.862556283748E+01   -0.57135E-04   -0.37458E-05    12   0.296E-02
   2 F= -.86255628E+01 E0= -.86255628E+01  d E =-.418326E-02
       N       E                     dE             d eps       ncg     rms          rms(c)
DAV:   1    -0.862562302159E+01   -0.12809E-03   -0.41304E-04    12   0.150E-01    0.129E-02
DAV:   2    -0.862562296308E+01    0.58504E-07   -0.48930E-06    18   0.141E-02
   3 F= -.86256230E+01 E0= -.86256230E+01  d E =-.366473E-02
