       N       E                     dE             d eps       ncg     rms          rms(c)
DAV:   1    -0.563764323111E+01   -0.56376E+01   -0.74469E+01    12   0.526E+01    0.119E+01
DAV:   2    -0.395780338751E+01    0.16798E+01   -0.19034E+00    12   0.111E+01    0.727E+00
DAV:   3    -0.407118117853E+01   -0.11338E+00   -0.15382E+01    12   0.100E+01    0.807E+00
DAV:   4    -0.358244568386E+01    0.48874E+00   -0.15328E-01    12   0.270E+00    0.583E+00
DAV:   5    -0.337263176351E+01    0.20981E+00   -0.49029E-02    12   0.131E+00    0.417E+00
DAV:   6    -0.324521094426E+01    0.12742E+00   -0.20281E+00    12   0.273E+00    0.166E+00
DAV:   7    -0.323511122202E+01    0.10100E-01   -0.36541E-03    12   0.473E-01    0.115E+00
DAV:   8    -0.322742914916E+01    0.76821E-02   -0.19705E-02    12   0.819E-01    0.612E-01
DAV:   9    -0.322517268309E+01    0.22565E-02   -0.90447E-04    12   0.221E-01    0.308E-01
DAV:  10    -0.322435873491E+01    0.81395E-03   -0.93806E-04    12   0.184E-01    0.471E-02
DAV:  11    -0.322435805164E+01    0.68328E-06   -0.47420E-05     6   0.516E-02
   1 F= -.32243581E+01 E0= -.31126434E+01  d E =-.322436E+01
       N       E                     dE             d eps       ncg     rms          rms(c)
DAV:   1    -0.117124307836E+02   -0.84881E+01   -0.11105E+02    12   0.730E+01    0.601E+00
DAV:   2    -0.107692241408E+02    0.94321E+00   -0.21219E+00    12   0.568E+00    0.301E+00
DAV:   3    -0.106890764714E+02    0.80148E-01   -0.84411E-01    12   0.373E+00    0.874E-01
DAV:   4    -0.107113343329E+02   -0.22258E-01   -0.68530E-02    12   0.186E+00    0.218E-01
DAV:   5    -0.107136516806E+02   -0.23173E-02   -0.52640E-03    12   0.517E-01    0.602E-02
DAV:   6    -0.107139458059E+02   -0.29413E-03   -0.42933E-04    12   0.155E-01    0.206E-02
DAV:   7    -0.107139455302E+02    0.27567E-06   -0.97124E-05     6   0.455E-02
   2 F= -.10713946E+02 E0= -.10713946E+02  d E =-.748959E+01
       N       E                     dE             d eps       ncg     rms          rms(c)
DAV:   1    -0.116196410997E+02   -0.90570E+00   -0.37627E+00    12   0.118E+01    0.122E+00
DAV:   2    -0.115569788233E+02    0.62662E-01   -0.15653E-01    12   0.190E+00    0.515E-01
DAV:   3    -0.115446770914E+02    0.12302E-01   -0.66003E-02    12   0.105E+00    0.129E-01
DAV:   4    -0.115448939597E+02   -0.21687E-03   -0.23108E-03    12   0.277E-01    0.246E-02
DAV:   5    -0.115448595076E+02    0.34452E-04   -0.28573E-04     6   0.724E-02
   3 F= -.11544860E+02 E0= -.11544860E+02  d E =-.832050E+01
       N       E                     dE             d eps       ncg     rms          rms(c)
DAV:   1    -0.131688228587E+02   -0.16239E+01   -0.13772E+01    12   0.215E+01    0.231E+00
DAV:   2    -0.129146462489E+02    0.25418E+00   -0.68961E-01    12   0.361E+00    0.918E-01
DAV:   3    -0.128710021673E+02    0.43644E-01   -0.27487E-01    12   0.202E+00    0.255E-01
DAV:   4    -0.128725809112E+02   -0.15787E-02   -0.14624E-02    12   0.617E-01    0.890E-02
DAV:   5    -0.128719624115E+02    0.61850E-03   -0.28411E-03    12   0.201E-01    0.240E-02
DAV:   6    -0.128719667861E+02   -0.43746E-05   -0.18553E-04    12   0.865E-02
   4 F= -.12871967E+02 E0= -.12871967E+02  d E =-.964761E+01
       N       E                     dE             d eps       ncg     rms          rms(c)
DAV:   1    -0.161769303865E+02   -0.33050E+01   -0.47738E+01    12   0.381E+01    0.430E+00
DAV:   2    -0.151959843552E+02    0.98095E+00   -0.25959E+00    12   0.707E+00    0.170E+00
DAV:   3    -0.150265003050E+02    0.16948E+00   -0.16654E+00    18   0.464E+00    0.509E-01
DAV:   4    -0.150257121623E+02    0.78814E-03   -0.32843E-02    12   0.913E-01    0.283E-01
DAV:   5    -0.150305760718E+02   -0.48639E-02   -0.84367E-03    12   0.575E-01    0.668E-02
DAV:   6    -0.150302934784E+02    0.28259E-03   -0.14236E-03    12   0.160E-01    0.276E-02
DAV:   7    -0.150302722521E+02    0.21226E-04         N       E                     dE             d eps       ncg     rms          rms(c)
DAV:   1    -0.161769303865E+02   -0.33050E+01   -0.47738E+01    12   0.381E+01    0.430E+00
DAV:   2    -0.151959843552E+02    0.98095E+00   -0.25959E+00    12   0.707E+00    0.170E+00
DAV:   3    -0.150265003050E+02    0.16948E+00   -0.16654E+00    18   0.464E+00    0.509E-01
DAV:   4    -0.150257121623E+02    0.78814E-03   -0.32843E-02    12   0.913E-01    0.283E-01
DAV:   5    -0.150305760718E+02   -0.48639E-02   -0.84367E-03    12   0.575E-01    0.668E-02
DAV:   6    -0.150302934784E+02    0.28259E-03   -0.14236E-03    12   0.160E-01    0.276E-02
DAV:   7    -0.150302722521E+02    0.21226E-04   -0.20601E-04    12   0.773E-02
   5 F= -.15030272E+02 E0= -.15030272E+02  d E =-.118059E+02
