 vasp.6.2.1 16May21 (build Dec 20 2021 17:15:01) gamma-only                      
 executed on             LinuxGNU date 2026.02.04  17:12:26
 running on    1 total cores
 distrk:  each k-point on    1 cores,    1 groups
 distr:  one band on NCORE=   1 cores,    1 groups


--------------------------------------------------------------------------------------------------------


 INCAR:
   ISMEAR = 0
   NSW = 100
   IBRION = 2
   ISIF = 3
   ENCUT = 500

 POTCAR:    PAW_PBE H 15Jun2001                   
 POTCAR:    PAW_PBE Be_GW 04Mar2008               
 POTCAR:    PAW_PBE H 15Jun2001                   
   VRHFIN =H: ultrasoft test                                                                        
   LEXCH  = PE                                                                                      
   EATOM  =    12.4884 eV,    0.9179 Ry                                                             
                                                                                                    
   TITEL  = PAW_PBE H 15Jun2001                                                                     
   LULTRA =        F    use ultrasoft PP ?                                                          
   IUNSCR =        0    unscreen: 0-lin 1-nonlin 2-no                                               
   RPACOR =    0.000    partial core radius                                                         
   POMASS =    1.000; ZVAL   =    1.000    mass and valenz                                          
   RCORE  =    1.100    outmost cutoff radius                                                       
   RWIGS  =    0.700; RWIGS  =    0.370    wigner-seitz radius (au A)                               
   ENMAX  =  250.000; ENMIN  =  200.000 eV                                                          
   RCLOC  =    0.701    cutoff for local pot                                                        
   LCOR   =        T    correct aug charges                                                         
   LPAW   =        T    paw PP                                                                      
   EAUG   =  400.000                                                                                
   RMAX   =    1.123    core radius for proj-oper                                                   
   RAUG   =    1.200    factor for augmentation sphere                                              
   RDEP   =    1.112    radius for radial grids                                                     
   RDEPT  =    0.926    core radius for aug-charge                                                  
                                                                                                    
   Atomic configuration                                                                             
    2 entries                                                                                       
     n  l   j            E        occ.                                                              
     1  0  0.50        -6.4927   1.0000                                                             
     2  1  0.50        -3.4015   0.0000                                                             
   Description                                                                                      
     l       E           TYP  RCUT    TYP  RCUT                                                     
     0     -6.4927494     23  1.100                                                                 
     0      6.8029130     23  1.100                                                                 
     1     -4.0817478     23  1.100                                                                 
  local pseudopotential read in
  atomic valenz-charges read in
  non local Contribution for L=           0  read in
    real space projection operators read in
  non local Contribution for L=           0  read in
    real space projection operators read in
  non local Contribution for L=           1  read in
    real space projection operators read in
    PAW grid and wavefunctions read in

   number of l-projection  operators is LMAX  =           3
   number of lm-projection operators is LMMAX =           5

 POTCAR:    PAW_PBE Be_GW 04Mar2008               
   VRHFIN =Be: s2p0                                                                                 
   LEXCH  = PE                                                                                      
   EATOM  =    27.5229 eV,    2.0229 Ry                                                             
                                                                                                    
   TITEL  = PAW_PBE Be_GW 04Mar2008                                                                 
   LULTRA =        F    use ultrasoft PP ?                                                          
   IUNSCR =        1    unscreen: 0-lin 1-nonlin 2-no                                               
   RPACOR =    1.580    partial core radius                                                         
   POMASS =    9.013; ZVAL   =    2.000    mass and valenz                                          
   RCORE  =    1.900    outmost cutoff radius                                                       
   RWIGS  =    1.900; RWIGS  =    1.005    wigner-seitz radius (au A)                               
   ENMAX  =  247.543; ENMIN  =  185.657 eV                                                          
   RCLOC  =    1.409    cutoff for local pot                                                        
   LCOR   =        T    correct aug charges                                                         
   LPAW   =        T    paw PP                                                                      
   EAUG   =  527.985                                                                                
   DEXC   =    0.000                                                                                
   RMAX   =    1.944    core radius for proj-oper                                                   
   RAUG   =    1.300    factor for augmentation sphere                                              
   RDEP   =    2.003    radius for radial grids                                                     
   RDEPT  =    1.802    core radius for aug-charge                                                  
                                                                                                    
   Atomic configuration                                                                             
    4 entries                                                                                       
     n  l   j            E        occ.                                                              
     1  0  0.50      -106.2290   2.0000                                                             
     2  0  0.50        -5.6115   1.9999                                                             
     2  1  0.50        -2.0196   0.0010                                                             
     3  2  1.50        -1.3606   0.0000                                                             
   Description                                                                                      
     l       E           TYP  RCUT    TYP  RCUT                                                     
     0     -5.6114891     23  1.900                                                                 
     0     68.0291300     23  1.900                                                                 
     1     -2.0196155     23  1.900                                                                 
     1     54.4233040     23  1.900                                                                 
     2     54.4233040     23  1.900                                                                 
  local pseudopotential read in
  partial core-charges read in
  partial kinetic energy density read in
  kinetic energy density of atom read in
  atomic valenz-charges read in
  non local Contribution for L=           0  read in
    real space projection operators read in
  non local Contribution for L=           0  read in
    real space projection operators read in
  non local Contribution for L=           1  read in
    real space projection operators read in
  non local Contribution for L=           1  read in
    real space projection operators read in
  non local Contribution for L=           2  read in
    real space projection operators read in
    PAW grid and wavefunctions read in

   number of l-projection  operators is LMAX  =           5
   number of lm-projection operators is LMMAX =          13

  PAW_PBE H 15Jun2001                   :
 energy of atom  1       EATOM=  -12.4884
 kinetic energy error for atom=    0.0020 (will be added to EATOM!!)
  PAW_PBE Be_GW 04Mar2008               :
 energy of atom  2       EATOM=  -27.5229
 kinetic energy error for atom=    0.0001 (will be added to EATOM!!)


 POSCAR: BeH2
  positions in cartesian coordinates
  velocities in cartesian coordinates
  No initial velocities read in
 exchange correlation table for  LEXCH =        8
   RHO(1)=    0.500       N(1)  =     2000
   RHO(2)=  100.500       N(2)  =     4000



--------------------------------------------------------------------------------------------------------


 ion  position               nearest neighbor table
   1  0.290  0.161  0.161-   3 1.33
   2  0.032  0.161  0.161-   3 1.33
   3  0.161  0.161  0.161-   1 1.33   2 1.33

  LATTYP: Found a simple cubic cell.
 ALAT       =    10.3250000477
  
  Lattice vectors:
  
 A1 = (  10.3250000477,   0.0000000000,   0.0000000000)
 A2 = (   0.0000000000,  10.3250000477,   0.0000000000)
 A3 = (   0.0000000000,   0.0000000000,  10.3250000477)


Analysis of symmetry for initial positions (statically):
=====================================================================
 Subroutine PRICEL returns:
 Original cell was already a primitive cell.
 

 Routine SETGRP: Setting up the symmetry group for a 
 simple cubic supercell.


 Subroutine GETGRP returns: Found 16 space group operations
 (whereof  2 operations were pure point group operations)
 out of a pool of 48 trial point group operations.


The static configuration has the point symmetry C_1h.
 The point group associated with its full space group is D_4h.


Analysis of symmetry for dynamics (positions and initial velocities):
=====================================================================
 Subroutine PRICEL returns:
 Original cell was already a primitive cell.
 

 Routine SETGRP: Setting up the symmetry group for a 
 simple cubic supercell.


 Subroutine GETGRP returns: Found 16 space group operations
 (whereof  2 operations were pure point group operations)
 out of a pool of 48 trial point group operations.


The dynamic configuration has the point symmetry C_1h.
 The point group associated with its full space group is D_4h.


 Subroutine INISYM returns: Found 16 space group operations
 (whereof  2 operations are pure point group operations),
 and found     1 'primitive' translations


----------------------------------------------------------------------------------------

                                     Primitive cell                                     

  volume of cell :    1100.7031

  direct lattice vectors                    reciprocal lattice vectors
    10.325000048  0.000000000  0.000000000     0.096852300  0.000000000  0.000000000
     0.000000000 10.325000048  0.000000000     0.000000000  0.096852300  0.000000000
     0.000000000  0.000000000 10.325000048     0.000000000  0.000000000  0.096852300

  length of vectors
    10.325000048 10.325000048 10.325000048     0.096852300  0.096852300  0.096852300

  position of ions in fractional coordinates (direct lattice)
     0.289830504  0.161016951  0.161016951
     0.032203388  0.161016951  0.161016951
     0.161016951  0.161016951  0.161016951

  ion indices of the primitive-cell ions
   primitive index   ion index
                 1           1
                 2           2
                 3           3

----------------------------------------------------------------------------------------



 KPOINTS: Gamma-point only                        

Automatic generation of k-mesh.
 Grid dimensions read from file:
 generate k-points for:    1    1    1

 Generating k-lattice:

  Cartesian coordinates                     Fractional coordinates (reciprocal lattice)
     0.096852300  0.000000000  0.000000000     1.000000000  0.000000000  0.000000000
     0.000000000  0.096852300  0.000000000     0.000000000  1.000000000  0.000000000
     0.000000000  0.000000000  0.096852300     0.000000000  0.000000000  1.000000000

  Length of vectors
     0.096852300  0.096852300  0.096852300

  Shift w.r.t. Gamma in fractional coordinates (k-lattice)
     0.000000000  0.000000000  0.000000000

 
 Subroutine IBZKPT returns following result:
 ===========================================
 
 Found      1 irreducible k-points:
 
 Following reciprocal coordinates:
            Coordinates               Weight
  0.000000  0.000000  0.000000      1.000000
 
 Following cartesian coordinates:
            Coordinates               Weight
  0.000000  0.000000  0.000000      1.000000
 


--------------------------------------------------------------------------------------------------------




 Dimension of arrays:
   k-points           NKPTS =      1   k-points in BZ     NKDIM =      1   number of bands    NBANDS=      6
   number of dos      NEDOS =    301   number of ions     NIONS =      3
   non local maximal  LDIM  =      5   non local SUM 2l+1 LMDIM =     13
   total plane-waves  NPLWV = 175616
   max r-space proj   IRMAX =      1   max aug-charges    IRDMAX=   5616
   dimension x,y,z NGX =    56 NGY =   56 NGZ =   56
   dimension x,y,z NGXF=   112 NGYF=  112 NGZF=  112
   support grid    NGXF=   112 NGYF=  112 NGZF=  112
   ions per type =               2   1
   NGX,Y,Z   is equivalent  to a cutoff of   9.02,  9.02,  9.02 a.u.
   NGXF,Y,Z  is equivalent  to a cutoff of  18.03, 18.03, 18.03 a.u.

 SYSTEM =  unknown system                          
 POSCAR =  BeH2                                    

 Startparameter for this run:
   NWRITE =      2    write-flag & timer
   PREC   = normal    normal or accurate (medium, high low for compatibility)
   ISTART =      1    job   : 0-new  1-cont  2-samecut
   ICHARG =      0    charge: 1-file 2-atom 10-const
   ISPIN  =      1    spin polarized calculation?
   LNONCOLLINEAR =      F non collinear calculations
   LSORBIT =      F    spin-orbit coupling
   INIWAV =      1    electr: 0-lowe 1-rand  2-diag
   LASPH  =      F    aspherical Exc in radial PAW
 Electronic Relaxation 1
   ENCUT  =  500.0 eV  36.75 Ry    6.06 a.u.  18.82 18.82 18.82*2*pi/ulx,y,z
   ENINI  =  500.0     initial cutoff
   ENAUG  =  528.0 eV  augmentation charge cutoff
   NELM   =     60;   NELMIN=  2; NELMDL=  0     # of ELM steps 
   EDIFF  = 0.1E-03   stopping-criterion for ELM
   LREAL  =      F    real-space projection
   NLSPLINE    = F    spline interpolate recip. space projectors
   LCOMPAT=      F    compatible to vasp.4.4
   GGA_COMPAT  = T    GGA compatible to vasp.4.4-vasp.4.6
   LMAXPAW     = -100 max onsite density
   LMAXMIX     =    2 max onsite mixed and CHGCAR
   VOSKOWN=      0    Vosko Wilk Nusair interpolation
   ROPT   =    0.00000   0.00000
 Ionic relaxation
   EDIFFG = 0.1E-02   stopping-criterion for IOM
   NSW    =    100    number of steps for IOM
   NBLOCK =      1;   KBLOCK =    100    inner block; outer block 
   IBRION =      2    ionic relax: 0-MD 1-quasi-New 2-CG
   NFREE  =      1    steps in history (QN), initial steepest desc. (CG)
   ISIF   =      3    stress and relaxation
   IWAVPR =     11    prediction:  0-non 1-charg 2-wave 3-comb
   ISYM   =      2    0-nonsym 1-usesym 2-fastsym
   LCORR  =      T    Harris-Foulkes like correction to forces

   POTIM  = 0.5000    time-step for ionic-motion
   TEIN   =    0.0    initial temperature
   TEBEG  =    0.0;   TEEND  =   0.0 temperature during run
   SMASS  =  -3.00    Nose mass-parameter (am)
   estimated Nose-frequenzy (Omega)   =  0.10E-29 period in steps = 0.13E+47 mass=  -0.244E-26a.u.
   SCALEE = 1.0000    scale energy and forces
   NPACO  =    256;   APACO  = 16.0  distance and # of slots for P.C.
   PSTRESS=    0.0 pullay stress

  Mass of Ions in am
   POMASS =   1.00  9.01
  Ionic Valenz
   ZVAL   =   1.00  2.00
  Atomic Wigner-Seitz radii
   RWIGS  =  -1.00 -1.00
  virtual crystal weights 
   VCA    =   1.00  1.00
   NELECT =       4.0000    total number of electrons
   NUPDOWN=      -1.0000    fix difference up-down

 DOS related values:
   EMIN   =  10.00;   EMAX   =-10.00  energy-range for DOS
   EFERMI =   0.00
   ISMEAR =     0;   SIGMA  =   0.20  broadening in eV -4-tet -1-fermi 0-gaus

 Electronic relaxation 2 (details)
   IALGO  =     38    algorithm
   LDIAG  =      T    sub-space diagonalisation (order eigenvalues)
   LSUBROT=      F    optimize rotation matrix (better conditioning)
   TURBO    =      0    0=normal 1=particle mesh
   IRESTART =      0    0=no restart 2=restart with 2 vectors
   NREBOOT  =      0    no. of reboots
   NMIN     =      0    reboot dimension
   EREF     =   0.00    reference energy to select bands
   IMIX   =      4    mixing-type and parameters
     AMIX     =   0.40;   BMIX     =  1.00
     AMIX_MAG =   1.60;   BMIX_MAG =  1.00
     AMIN     =   0.10
     WC   =   100.;   INIMIX=   1;  MIXPRE=   1;  MAXMIX= -45

 Intra band minimization:
   WEIMIN = 0.0010     energy-eigenvalue tresh-hold
   EBREAK =  0.42E-05  absolut break condition
   DEPER  =   0.30     relativ break condition  

   TIME   =   0.40     timestep for ELM

  volume/ion in A,a.u.               =     366.90      2475.97
  Fermi-wavevector in a.u.,A,eV,Ry     =   0.251693  0.475631  0.861922  0.063349
  Thomas-Fermi vector in A             =   1.069768

 Write flags
   LWAVE        =      T    write WAVECAR
   LDOWNSAMPLE  =      F    k-point downsampling of WAVECAR
   LCHARG       =      T    write CHGCAR
   LVTOT        =      F    write LOCPOT, total local potential
   LVHAR        =      F    write LOCPOT, Hartree potential only
   LELF         =      F    write electronic localiz. function (ELF)
   LORBIT       =      0    0 simple, 1 ext, 2 COOP (PROOUT), +10 PAW based schemes


 Dipole corrections
   LMONO  =      F    monopole corrections only (constant potential shift)
   LDIPOL =      F    correct potential (dipole corrections)
   IDIPOL =      0    1-x, 2-y, 3-z, 4-all directions 
   EPSILON=  1.0000000 bulk dielectric constant

 Exchange correlation treatment:
   GGA     =    --    GGA type
   LEXCH   =     8    internal setting for exchange type
   VOSKOWN=      0    Vosko Wilk Nusair interpolation
   LHFCALC =     F    Hartree Fock is set to
   LHFONE  =     F    Hartree Fock one center treatment
   AEXX    =    0.0000 exact exchange contribution

 Linear response parameters
   LEPSILON=     F    determine dielectric tensor
   LRPA    =     F    only Hartree local field effects (RPA)
   LNABLA  =     F    use nabla operator in PAW spheres
   LVEL    =     F    velocity operator in full k-point grid
   LINTERFAST=   F  fast interpolation
   KINTER  =     0    interpolate to denser k-point grid
   CSHIFT  =0.1000    complex shift for real part using Kramers Kronig
   OMEGAMAX=  -1.0    maximum frequency
   DEG_THRESHOLD= 0.2000000E-02 threshold for treating states as degnerate
   RTIME   =   -0.100 relaxation time in fs
  (WPLASMAI=    0.000 imaginary part of plasma frequency in eV, 0.658/RTIME)
   DFIELD  = 0.0000000 0.0000000 0.0000000 field for delta impulse in time

 Orbital magnetization related:
   ORBITALMAG=     F  switch on orbital magnetization
   LCHIMAG   =     F  perturbation theory with respect to B field
   DQ        =  0.001000  dq finite difference perturbation B field
   LLRAUG    =     F  two centre corrections for induced B field



--------------------------------------------------------------------------------------------------------


 conjugate gradient relaxation of ions
 charge density and potential will be updated during run
 non-spin polarized calculation
 Variant of blocked Davidson
 Davidson routine will perform the subspace rotation
 perform sub-space diagonalisation
    after iterative eigenvector-optimisation
 modified Broyden-mixing scheme, WC =      100.0
 initial mixing is a Kerker type mixing with AMIX =  0.4000 and BMIX =      1.0000
 Hartree-type preconditioning will be used
 using additional bands            4
 reciprocal scheme for non local part
 use partial core corrections
 calculate Harris-corrections to forces   (improved forces if not selfconsistent)
 use gradient corrections 
 use of overlap-Matrix (Vanderbilt PP)
 Gauss-broadening in eV      SIGMA  =   0.20


--------------------------------------------------------------------------------------------------------


  energy-cutoff  :      500.00
  volume of cell :     1100.70
      direct lattice vectors                 reciprocal lattice vectors
    10.325000048  0.000000000  0.000000000     0.096852300  0.000000000  0.000000000
     0.000000000 10.325000048  0.000000000     0.000000000  0.096852300  0.000000000
     0.000000000  0.000000000 10.325000048     0.000000000  0.000000000  0.096852300

  length of vectors
    10.325000048 10.325000048 10.325000048     0.096852300  0.096852300  0.096852300



 old parameters found on file WAVECAR:
  energy-cutoff  :      250.00
  volume of cell :       36.76
      direct lattice vectors                 reciprocal lattice vectors
     3.325000048  0.000000000  0.000000000     0.300751875  0.000000000  0.000000000
     0.000000000  3.325000048  0.000000000     0.000000000  0.300751875  0.000000000
     0.000000000  0.000000000  3.325000048     0.000000000  0.000000000  0.300751875

  length of vectors


 k-points in units of 2pi/SCALE and weight: Gamma-point only                        
   0.00000000  0.00000000  0.00000000       1.000

 k-points in reciprocal lattice and weights: Gamma-point only                        
   0.00000000  0.00000000  0.00000000       1.000

 position of ions in fractional coordinates (direct lattice) 
   0.28983050  0.16101695  0.16101695
   0.03220339  0.16101695  0.16101695
   0.16101695  0.16101695  0.16101695

 position of ions in cartesian coordinates  (Angst):
   2.99249996  1.66250002  1.66250002
   0.33249999  1.66250002  1.66250002
   1.66250002  1.66250002  1.66250002



--------------------------------------------------------------------------------------------------------


 use serial FFT for orbitals x direction half grid
 k-point   1 :   0.0000 0.0000 0.0000  plane waves:   14009

 maximum and minimum number of plane-waves per node :     14009    14009

 maximum number of plane-waves:     14009
 maximum index in each direction: 
   IXMAX=   18   IYMAX=   18   IZMAX=   18
   IXMIN=    0   IYMIN=  -18   IZMIN=  -18


 serial   3D FFT for wavefunctions
 parallel 3D FFT for charge:
    minimum data exchange during FFTs selected (reduces bandwidth)


 total amount of memory used by VASP MPI-rank0   170365. kBytes
=======================================================================

   base      :      30000. kBytes
   nonl-proj :       3586. kBytes
   fftplans  :      48668. kBytes
   grid      :      86754. kBytes
   one-center:         12. kBytes
   wavefun   :       1345. kBytes

     INWAV:  cpu time    0.0021: real time    0.0021
 Broyden mixing: mesh for mixing (old mesh)
   NGX = 37   NGY = 37   NGZ = 37
  (NGX  =112   NGY  =112   NGZ  =112)
  gives a total of  50653 points

 charge density for first step will be calculated from the start-wavefunctions


--------------------------------------------------------------------------------------------------------


 Maximum index for augmentation-charges         5257 (set IRDMAX)


--------------------------------------------------------------------------------------------------------


 initial charge from wavefunction
 First call to EWALD:  gamma=   0.172
 Maximum number of real-space cells 3x 3x 3
 Maximum number of reciprocal cells 3x 3x 3

    FEWALD:  cpu time    0.0009: real time    0.0009


--------------------------------------- Iteration      1(   1)  ---------------------------------------


    POTLOK:  cpu time    1.1248: real time    1.6312
    SETDIJ:  cpu time    0.0060: real time    0.0060
     EDDAV:  cpu time    0.2849: real time    0.2870
       DOS:  cpu time    0.0003: real time    0.0005
    CHARGE:  cpu time    0.0984: real time    0.0992
    MIXING:  cpu time    0.0400: real time    0.0404
    --------------------------------------------
      LOOP:  cpu time    1.5545: real time    2.0643

 eigenvalue-minimisations  :    24
 total energy-change (2. order) :-0.3897434E+02  (-0.1101042E+03)
 number of electron       4.0000000 magnetization 
 augmentation part       -0.0699334 magnetization 

 Broyden mixing:
  rms(total) = 0.10175E+01    rms(broyden)= 0.10175E+01
  rms(prec ) = 0.23547E+01
  weight for this iteration     100.00

 Free energy of the ion-electron system (eV)
  ---------------------------------------------------
  alpha Z        PSCENC =         0.09131387
  Ewald energy   TEWEN  =        17.47667994
  -Hartree energ DENC   =        -0.54033221
  -exchange      EXHF   =         0.00000000
  -V(xc)+E(xc)   XCENC  =         1.88944327
  PAW double counting   =         0.85303190        0.02025071
  entropy T*S    EENTRO =        -0.00000000
  eigenvalues    EBANDS =      -111.26041072
  atomic energy  EATOM  =        52.49568407
  Solvation  Ediel_sol  =         0.00000000
  ---------------------------------------------------
  free energy    TOTEN  =       -38.97433916 eV

  energy without entropy =      -38.97433916  energy(sigma->0) =      -38.97433916


--------------------------------------------------------------------------------------------------------




--------------------------------------- Iteration      1(   2)  ---------------------------------------


    POTLOK:  cpu time    1.0922: real time    1.1911
    SETDIJ:  cpu time    0.0061: real time    0.0061
     EDDAV:  cpu time    0.2847: real time    0.2867
       DOS:  cpu time    0.0002: real time    0.0004
    CHARGE:  cpu time    0.1005: real time    0.1012
    MIXING:  cpu time    0.0374: real time    0.0377
    --------------------------------------------
      LOOP:  cpu time    1.5211: real time    1.6232

 eigenvalue-minimisations  :    24
 total energy-change (2. order) :-0.8081948E+01  (-0.1623711E+02)
 number of electron       3.9999996 magnetization 
 augmentation part        0.0087438 magnetization 

 Broyden mixing:
  rms(total) = 0.13729E+01    rms(broyden)= 0.13728E+01
  rms(prec ) = 0.24972E+01
  weight for this iteration     100.00

 eigenvalues of (default mixing * dielectric matrix)
  average eigenvalue GAMMA=   0.1944
  0.1944

 Free energy of the ion-electron system (eV)
  ---------------------------------------------------
  alpha Z        PSCENC =         0.09131387
  Ewald energy   TEWEN  =        17.47667994
  -Hartree energ DENC   =        -2.32398212
  -exchange      EXHF   =         0.00000000
  -V(xc)+E(xc)   XCENC  =         2.78465712
  PAW double counting   =        10.51415448       -9.83999188
  entropy T*S    EENTRO =        -0.00000000
  eigenvalues    EBANDS =      -118.25480274
  atomic energy  EATOM  =        52.49568407
  Solvation  Ediel_sol  =         0.00000000
  ---------------------------------------------------
  free energy    TOTEN  =       -47.05628727 eV

  energy without entropy =      -47.05628727  energy(sigma->0) =      -47.05628727


--------------------------------------------------------------------------------------------------------




--------------------------------------- Iteration      1(   3)  ---------------------------------------


    POTLOK:  cpu time    1.0999: real time    1.1313
    SETDIJ:  cpu time    0.0071: real time    0.0089
     EDDAV:  cpu time    0.2711: real time    0.2958
       DOS:  cpu time    0.0002: real time    0.0004
    CHARGE:  cpu time    0.0847: real time    0.0853
    MIXING:  cpu time    0.0457: real time    0.0460
    --------------------------------------------
      LOOP:  cpu time    1.5086: real time    1.5678

 eigenvalue-minimisations  :    24
 total energy-change (2. order) : 0.1540052E+01  (-0.1127106E+00)
 number of electron       3.9999996 magnetization 
 augmentation part        0.0096290 magnetization 

 Broyden mixing:
  rms(total) = 0.13324E+01    rms(broyden)= 0.13324E+01
  rms(prec ) = 0.24341E+01
  weight for this iteration     100.00

 eigenvalues of (default mixing * dielectric matrix)
  average eigenvalue GAMMA=   1.2281
  1.2281  1.2281

 Free energy of the ion-electron system (eV)
  ---------------------------------------------------
  alpha Z        PSCENC =         0.09131387
  Ewald energy   TEWEN  =        17.47667994
  -Hartree energ DENC   =        -2.88026131
  -exchange      EXHF   =         0.00000000
  -V(xc)+E(xc)   XCENC  =         2.97971662
  PAW double counting   =        12.74849221      -12.08691244
  entropy T*S    EENTRO =        -0.00000000
  eigenvalues    EBANDS =      -116.34094778
  atomic energy  EATOM  =        52.49568407
  Solvation  Ediel_sol  =         0.00000000
  ---------------------------------------------------
  free energy    TOTEN  =       -45.51623481 eV

  energy without entropy =      -45.51623481  energy(sigma->0) =      -45.51623481


--------------------------------------------------------------------------------------------------------




--------------------------------------- Iteration      1(   4)  ---------------------------------------


    POTLOK:  cpu time    1.0535: real time    1.0621
    SETDIJ:  cpu time    0.0063: real time    0.0063
     EDDAV:  cpu time    0.2315: real time    0.2329
       DOS:  cpu time    0.0002: real time    0.0004
    CHARGE:  cpu time    0.0832: real time    0.0837
    MIXING:  cpu time    0.0419: real time    0.0421
    --------------------------------------------
      LOOP:  cpu time    1.4165: real time    1.4275

 eigenvalue-minimisations  :    18
 total energy-change (2. order) : 0.3092816E+02  (-0.2458277E+01)
 number of electron       3.9999997 magnetization 
 augmentation part       -0.0051691 magnetization 

 Broyden mixing:
  rms(total) = 0.56189E+00    rms(broyden)= 0.56184E+00
  rms(prec ) = 0.10904E+01
  weight for this iteration     100.00

 eigenvalues of (default mixing * dielectric matrix)
  average eigenvalue GAMMA=   1.6422
  3.2314  0.8476  0.8476

 Free energy of the ion-electron system (eV)
  ---------------------------------------------------
  alpha Z        PSCENC =         0.09131387
  Ewald energy   TEWEN  =        17.47667994
  -Hartree energ DENC   =       -37.01342388
  -exchange      EXHF   =         0.00000000
  -V(xc)+E(xc)   XCENC  =         9.16455910
  PAW double counting   =        49.39619986      -49.23036682
  entropy T*S    EENTRO =        -0.00000000
  eigenvalues    EBANDS =       -56.96871905
  atomic energy  EATOM  =        52.49568407
  Solvation  Ediel_sol  =         0.00000000
  ---------------------------------------------------
  free energy    TOTEN  =       -14.58807290 eV

  energy without entropy =      -14.58807290  energy(sigma->0) =      -14.58807290


--------------------------------------------------------------------------------------------------------




--------------------------------------- Iteration      1(   5)  ---------------------------------------


    POTLOK:  cpu time    1.0285: real time    1.0457
    SETDIJ:  cpu time    0.0067: real time    0.0068
     EDDAV:  cpu time    0.3198: real time    0.3218
       DOS:  cpu time    0.0002: real time    0.0004
    CHARGE:  cpu time    0.0840: real time    0.0892
    MIXING:  cpu time    0.0410: real time    0.0412
    --------------------------------------------
      LOOP:  cpu time    1.4803: real time    1.5050

 eigenvalue-minimisations  :    24
 total energy-change (2. order) :-0.1056341E+01  (-0.2825731E+01)
 number of electron       3.9999999 magnetization 
 augmentation part       -0.0152685 magnetization 

 Broyden mixing:
  rms(total) = 0.13477E+01    rms(broyden)= 0.13476E+01
  rms(prec ) = 0.17876E+01
  weight for this iteration     100.00

 eigenvalues of (default mixing * dielectric matrix)
  average eigenvalue GAMMA=   1.4699
  1.9218  1.5296  1.5296  0.8986

 Free energy of the ion-electron system (eV)
  ---------------------------------------------------
  alpha Z        PSCENC =         0.09131387
  Ewald energy   TEWEN  =        17.47667994
  -Hartree energ DENC   =       -78.21061011
  -exchange      EXHF   =         0.00000000
  -V(xc)+E(xc)   XCENC  =        13.81738909
  PAW double counting   =       120.97649327     -120.95293856
  entropy T*S    EENTRO =        -0.00000000
  eigenvalues    EBANDS =       -21.33842553
  atomic energy  EATOM  =        52.49568407
  Solvation  Ediel_sol  =         0.00000000
  ---------------------------------------------------
  free energy    TOTEN  =       -15.64441396 eV

  energy without entropy =      -15.64441396  energy(sigma->0) =      -15.64441396


--------------------------------------------------------------------------------------------------------




--------------------------------------- Iteration      1(   6)  ---------------------------------------


    POTLOK:  cpu time    1.0327: real time    1.0475
    SETDIJ:  cpu time    0.0065: real time    0.0065
     EDDAV:  cpu time    0.3130: real time    0.3149
       DOS:  cpu time    0.0002: real time    0.0003
    CHARGE:  cpu time    0.0937: real time    0.0944
    MIXING:  cpu time    0.0423: real time    0.0425
    --------------------------------------------
      LOOP:  cpu time    1.4885: real time    1.5060

 eigenvalue-minimisations  :    24
 total energy-change (2. order) : 0.4375302E+01  (-0.3629018E+01)
 number of electron       3.9999997 magnetization 
 augmentation part       -0.0090615 magnetization 

 Broyden mixing:
  rms(total) = 0.25334E+00    rms(broyden)= 0.25330E+00
  rms(prec ) = 0.66763E+00
  weight for this iteration     100.00

 eigenvalues of (default mixing * dielectric matrix)
  average eigenvalue GAMMA=   1.9801
  4.8497  1.5782  1.5782  0.7959  1.0986

 Free energy of the ion-electron system (eV)
  ---------------------------------------------------
  alpha Z        PSCENC =         0.09131387
  Ewald energy   TEWEN  =        17.47667994
  -Hartree energ DENC   =       -38.24446569
  -exchange      EXHF   =         0.00000000
  -V(xc)+E(xc)   XCENC  =         8.09409881
  PAW double counting   =       100.60644219      -99.95894825
  entropy T*S    EENTRO =        -0.00000000
  eigenvalues    EBANDS =       -51.82991685
  atomic energy  EATOM  =        52.49568407
  Solvation  Ediel_sol  =         0.00000000
  ---------------------------------------------------
  free energy    TOTEN  =       -11.26911190 eV

  energy without entropy =      -11.26911190  energy(sigma->0) =      -11.26911190


--------------------------------------------------------------------------------------------------------




--------------------------------------- Iteration      1(   7)  ---------------------------------------


    POTLOK:  cpu time    0.9883: real time    1.0023
    SETDIJ:  cpu time    0.0047: real time    0.0047
     EDDAV:  cpu time    0.2357: real time    0.2464
       DOS:  cpu time    0.0002: real time    0.0003
    CHARGE:  cpu time    0.0915: real time    0.0920
    MIXING:  cpu time    0.0447: real time    0.0450
    --------------------------------------------
      LOOP:  cpu time    1.3650: real time    1.3907

 eigenvalue-minimisations  :    18
 total energy-change (2. order) :-0.3145207E+01  (-0.3152260E+01)
 number of electron       3.9999999 magnetization 
 augmentation part       -0.0825882 magnetization 

 Broyden mixing:
  rms(total) = 0.10081E+01    rms(broyden)= 0.10080E+01
  rms(prec ) = 0.12159E+01
  weight for this iteration     100.00

 eigenvalues of (default mixing * dielectric matrix)
  average eigenvalue GAMMA=   1.6914
  5.1102  1.5632  1.5632  0.9129  0.9129  0.0858

 Free energy of the ion-electron system (eV)
  ---------------------------------------------------
  alpha Z        PSCENC =         0.09131387
  Ewald energy   TEWEN  =        17.47667994
  -Hartree energ DENC   =       -49.30155661
  -exchange      EXHF   =         0.00000000
  -V(xc)+E(xc)   XCENC  =         8.91365049
  PAW double counting   =       134.18779675     -136.71842020
  entropy T*S    EENTRO =        -0.00000000
  eigenvalues    EBANDS =       -41.55946703
  atomic energy  EATOM  =        52.49568407
  Solvation  Ediel_sol  =         0.00000000
  ---------------------------------------------------
  free energy    TOTEN  =       -14.41431873 eV

  energy without entropy =      -14.41431873  energy(sigma->0) =      -14.41431873


--------------------------------------------------------------------------------------------------------




--------------------------------------- Iteration      1(   8)  ---------------------------------------


    POTLOK:  cpu time    0.9978: real time    1.0038
    SETDIJ:  cpu time    0.0044: real time    0.0044
     EDDAV:  cpu time    0.3014: real time    0.3034
       DOS:  cpu time    0.0002: real time    0.0004
    CHARGE:  cpu time    0.0900: real time    0.0905
    MIXING:  cpu time    0.0428: real time    0.0432
    --------------------------------------------
      LOOP:  cpu time    1.4365: real time    1.4457

 eigenvalue-minimisations  :    24
 total energy-change (2. order) :-0.2194938E+04  (-0.2866138E+04)
 number of electron       4.0000024 magnetization 
 augmentation part       -2.2886658 magnetization 

 Broyden mixing:
  rms(total) = 0.62290E+01    rms(broyden)= 0.60113E+01
  rms(prec ) = 0.70925E+01
  weight for this iteration     100.00

 eigenvalues of (default mixing * dielectric matrix)
  average eigenvalue GAMMA=   1.4512
  5.1191  1.5617  1.5617  0.9130  0.9130  0.0893  0.0004

 Free energy of the ion-electron system (eV)
  ---------------------------------------------------
  alpha Z        PSCENC =         0.09131387
  Ewald energy   TEWEN  =        17.47667994
  -Hartree energ DENC   =       -51.03892014
  -exchange      EXHF   =         0.00000000
  -V(xc)+E(xc)   XCENC  =         8.94727060
  PAW double counting   =        84.16037304     -137.16129956
  entropy T*S    EENTRO =        -0.00000000
  eigenvalues    EBANDS =     -2184.32305011
  atomic energy  EATOM  =        52.49568407
  Solvation  Ediel_sol  =         0.00000000
  ---------------------------------------------------
  free energy    TOTEN  =     -2209.35194828 eV

  energy without entropy =    -2209.35194828  energy(sigma->0) =    -2209.35194828


--------------------------------------------------------------------------------------------------------




--------------------------------------- Iteration      1(   9)  ---------------------------------------


    POTLOK:  cpu time    1.0048: real time    1.0167
    SETDIJ:  cpu time    0.0043: real time    0.0043
     EDDAV:  cpu time    0.1796: real time    0.1812
       DOS:  cpu time    0.0001: real time    0.0002
    CHARGE:  cpu time    0.0863: real time    0.0869
    MIXING:  cpu time    0.0544: real time    0.0547
    --------------------------------------------
      LOOP:  cpu time    1.3295: real time    1.3441

 eigenvalue-minimisations  :    12
 total energy-change (2. order) : 0.1387323E+04  (-0.4061767E+02)
 number of electron       4.0000022 magnetization 
 augmentation part       -2.1351861 magnetization 

 Broyden mixing:
  rms(total) = 0.59188E+01    rms(broyden)= 0.59149E+01
  rms(prec ) = 0.70168E+01
  weight for this iteration     100.00

 eigenvalues of (default mixing * dielectric matrix)
  average eigenvalue GAMMA=   1.2714
  5.1251  1.5607  1.5607  0.9136  0.9136  0.0914  0.0032  0.0032

 Free energy of the ion-electron system (eV)
  ---------------------------------------------------
  alpha Z        PSCENC =         0.09131387
  Ewald energy   TEWEN  =        17.47667994
  -Hartree energ DENC   =       -52.19258441
  -exchange      EXHF   =         0.00000000
  -V(xc)+E(xc)   XCENC  =        12.90593687
  PAW double counting   =       113.71812194     -136.71327081
  entropy T*S    EENTRO =        -0.00000000
  eigenvalues    EBANDS =      -829.81073182
  atomic energy  EATOM  =        52.49568407
  Solvation  Ediel_sol  =         0.00000000
  ---------------------------------------------------
  free energy    TOTEN  =      -822.02885034 eV

  energy without entropy =     -822.02885034  energy(sigma->0) =     -822.02885034


--------------------------------------------------------------------------------------------------------




--------------------------------------- Iteration      1(  10)  ---------------------------------------


    POTLOK:  cpu time    0.9996: real time    1.0151
    SETDIJ:  cpu time    0.0041: real time    0.0041
     EDDAV:  cpu time    0.1762: real time    0.1773
       DOS:  cpu time    0.0001: real time    0.0002
    CHARGE:  cpu time    0.1036: real time    0.1044
    MIXING:  cpu time    0.0566: real time    0.0569
    --------------------------------------------
      LOOP:  cpu time    1.3401: real time    1.3580

 eigenvalue-minimisations  :    12
 total energy-change (2. order) : 0.2541932E+03  (-0.3830446E+02)
 number of electron       4.0000018 magnetization 
 augmentation part       -1.7752707 magnetization 

 Broyden mixing:
  rms(total) = 0.51287E+01    rms(broyden)= 0.49459E+01
  rms(prec ) = 0.60250E+01
  weight for this iteration     100.00

 eigenvalues of (default mixing * dielectric matrix)
  average eigenvalue GAMMA=   1.1422
  5.1979  1.5458  1.5458  0.9208  0.9208  0.1330  0.0059  0.0059  0.0039

 Free energy of the ion-electron system (eV)
  ---------------------------------------------------
  alpha Z        PSCENC =         0.09131387
  Ewald energy   TEWEN  =        17.47667994
  -Hartree energ DENC   =       -52.49018478
  -exchange      EXHF   =         0.00000000
  -V(xc)+E(xc)   XCENC  =        13.58682010
  PAW double counting   =       121.97034461     -138.37768050
  entropy T*S    EENTRO =        -0.22567011
  eigenvalues    EBANDS =      -582.36298455
  atomic energy  EATOM  =        52.49568407
  Solvation  Ediel_sol  =         0.00000000
  ---------------------------------------------------
  free energy    TOTEN  =      -567.83567735 eV

  energy without entropy =     -567.61000724  energy(sigma->0) =     -567.72284229


--------------------------------------------------------------------------------------------------------




--------------------------------------- Iteration      1(  11)  ---------------------------------------


    POTLOK:  cpu time    1.0170: real time    1.0228
    SETDIJ:  cpu time    0.0043: real time    0.0043
     EDDAV:  cpu time    0.1907: real time    0.1920
       DOS:  cpu time    0.0002: real time    0.0004
    CHARGE:  cpu time    0.0993: real time    0.1003
    MIXING:  cpu time    0.0663: real time    0.0667
    --------------------------------------------
      LOOP:  cpu time    1.3778: real time    1.3864

 eigenvalue-minimisations  :    12
 total energy-change (2. order) : 0.5831990E+03  (-0.1159969E+03)
 number of electron       4.0000002 magnetization 
 augmentation part       -0.1479495 magnetization 

 Broyden mixing:
  rms(total) = 0.14673E+01    rms(broyden)= 0.11787E+01
  rms(prec ) = 0.16401E+01
  weight for this iteration     100.00
  WARNING: grid for Broyden might be to small

 eigenvalues of (default mixing * dielectric matrix)
  average eigenvalue GAMMA=   1.0292
  5.2029  1.5450  1.5450  0.9207  0.9207  0.1359  0.0068  0.0068  0.0039  0.0039

 Free energy of the ion-electron system (eV)
  ---------------------------------------------------
  alpha Z        PSCENC =         0.09131387
  Ewald energy   TEWEN  =        17.47667994
  -Hartree energ DENC   =       -53.60037342
  -exchange      EXHF   =         0.00000000
  -V(xc)+E(xc)   XCENC  =        11.31531862
  PAW double counting   =       136.69838059     -137.94662707
  entropy T*S    EENTRO =        -0.22440028
  eigenvalues    EBANDS =       -10.94262056
  atomic energy  EATOM  =        52.49568407
  Solvation  Ediel_sol  =         0.00000000
  ---------------------------------------------------
  free energy    TOTEN  =        15.36335577 eV

  energy without entropy =       15.58775604  energy(sigma->0) =       15.47555591


--------------------------------------------------------------------------------------------------------




--------------------------------------- Iteration      1(  12)  ---------------------------------------


    POTLOK:  cpu time    1.0585: real time    1.0643
    SETDIJ:  cpu time    0.0043: real time    0.0043
     EDDAV:  cpu time    0.3307: real time    0.4069
       DOS:  cpu time    0.0002: real time    0.0003
    CHARGE:  cpu time    0.1004: real time    0.1011
    MIXING:  cpu time    0.0620: real time    0.0625
    --------------------------------------------
      LOOP:  cpu time    1.5561: real time    1.6395

 eigenvalue-minimisations  :    24
 total energy-change (2. order) :-0.2529958E+02  (-0.2586838E+02)
 number of electron       3.9999998 magnetization 
 augmentation part       -0.0154256 magnetization 

 Broyden mixing:
  rms(total) = 0.73864E+00    rms(broyden)= 0.71661E+00
  rms(prec ) = 0.81233E+00
  weight for this iteration     100.00

 eigenvalues of (default mixing * dielectric matrix)
  average eigenvalue GAMMA=   1.1756
  5.4331  2.7093  1.4098  1.4098  0.9770  0.7518  0.1975  0.0216  0.0052  0.0082
  0.0082

 Free energy of the ion-electron system (eV)
  ---------------------------------------------------
  alpha Z        PSCENC =         0.09131387
  Ewald energy   TEWEN  =        17.47667994
  -Hartree energ DENC   =       -53.85558007
  -exchange      EXHF   =         0.00000000
  -V(xc)+E(xc)   XCENC  =         9.25308786
  PAW double counting   =       136.01698716     -136.16473329
  entropy T*S    EENTRO =        -0.00000000
  eigenvalues    EBANDS =       -35.24966148
  atomic energy  EATOM  =        52.49568407
  Solvation  Ediel_sol  =         0.00000000
  ---------------------------------------------------
  free energy    TOTEN  =        -9.93622194 eV

  energy without entropy =       -9.93622194  energy(sigma->0) =       -9.93622194


--------------------------------------------------------------------------------------------------------




--------------------------------------- Iteration      1(  13)  ---------------------------------------


    POTLOK:  cpu time    1.0101: real time    1.0201
    SETDIJ:  cpu time    0.0066: real time    0.0066
     EDDAV:  cpu time    0.3357: real time    0.3380
       DOS:  cpu time    0.0002: real time    0.0003
    CHARGE:  cpu time    0.0896: real time    0.0902
    MIXING:  cpu time    0.0703: real time    0.0708
    --------------------------------------------
      LOOP:  cpu time    1.5124: real time    1.5259

 eigenvalue-minimisations  :    24
 total energy-change (2. order) : 0.1488418E+01  (-0.1321328E+01)
 number of electron       3.9999997 magnetization 
 augmentation part       -0.0005349 magnetization 

 Broyden mixing:
  rms(total) = 0.40937E+00    rms(broyden)= 0.40773E+00
  rms(prec ) = 0.47575E+00
  weight for this iteration     100.00

 eigenvalues of (default mixing * dielectric matrix)
  average eigenvalue GAMMA=   1.3717
  7.1314  3.6765  1.5710  1.5710  0.9052  0.7994  0.5635  0.1994  0.0220  0.0082
  0.0082  0.0052

 Free energy of the ion-electron system (eV)
  ---------------------------------------------------
  alpha Z        PSCENC =         0.09131387
  Ewald energy   TEWEN  =        17.47667994
  -Hartree energ DENC   =       -54.73937400
  -exchange      EXHF   =         0.00000000
  -V(xc)+E(xc)   XCENC  =         8.60251913
  PAW double counting   =        79.54843824      -78.84317656
  entropy T*S    EENTRO =        -0.00000000
  eigenvalues    EBANDS =       -33.07988821
  atomic energy  EATOM  =        52.49568407
  Solvation  Ediel_sol  =         0.00000000
  ---------------------------------------------------
  free energy    TOTEN  =        -8.44780352 eV

  energy without entropy =       -8.44780352  energy(sigma->0) =       -8.44780352


--------------------------------------------------------------------------------------------------------




--------------------------------------- Iteration      1(  14)  ---------------------------------------


    POTLOK:  cpu time    0.9808: real time    1.2529
    SETDIJ:  cpu time    0.0067: real time    0.0068
     EDDAV:  cpu time    0.1925: real time    0.1939
       DOS:  cpu time    0.0002: real time    0.0003
    CHARGE:  cpu time    0.1049: real time    0.1055
    MIXING:  cpu time    0.0753: real time    0.0767
    --------------------------------------------
      LOOP:  cpu time    1.3604: real time    1.6361

 eigenvalue-minimisations  :    12
 total energy-change (2. order) :-0.2168999E+00  (-0.2050379E+00)
 number of electron       3.9999998 magnetization 
 augmentation part       -0.0025359 magnetization 

 Broyden mixing:
  rms(total) = 0.38912E+00    rms(broyden)= 0.38904E+00
  rms(prec ) = 0.45250E+00
  weight for this iteration     100.00

 eigenvalues of (default mixing * dielectric matrix)
  average eigenvalue GAMMA=   1.3810
  7.7502  2.9786  1.4338  1.4338  1.4294  0.9880  0.9880  0.7090  0.1980  0.0220
  0.0082  0.0082  0.0052

 Free energy of the ion-electron system (eV)
  ---------------------------------------------------
  alpha Z        PSCENC =         0.09131387
  Ewald energy   TEWEN  =        17.47667994
  -Hartree energ DENC   =       -61.32041425
  -exchange      EXHF   =         0.00000000
  -V(xc)+E(xc)   XCENC  =         8.99933613
  PAW double counting   =        27.43346203      -27.13256133
  entropy T*S    EENTRO =        -0.00000000
  eigenvalues    EBANDS =       -26.70820388
  atomic energy  EATOM  =        52.49568407
  Solvation  Ediel_sol  =         0.00000000
  ---------------------------------------------------
  free energy    TOTEN  =        -8.66470341 eV

  energy without entropy =       -8.66470341  energy(sigma->0) =       -8.66470341


--------------------------------------------------------------------------------------------------------




--------------------------------------- Iteration      1(  15)  ---------------------------------------


    POTLOK:  cpu time    0.9557: real time    1.1743
    SETDIJ:  cpu time    0.0063: real time    0.0064
     EDDAV:  cpu time    0.3251: real time    0.3837
       DOS:  cpu time    0.0002: real time    0.0002
    CHARGE:  cpu time    0.0969: real time    0.0987
    MIXING:  cpu time    0.0742: real time    0.0757
    --------------------------------------------
      LOOP:  cpu time    1.4585: real time    1.7390

 eigenvalue-minimisations  :    24
 total energy-change (2. order) :-0.9280432E+00  (-0.1128688E+00)
 number of electron       3.9999998 magnetization 
 augmentation part       -0.0071885 magnetization 

 Broyden mixing:
  rms(total) = 0.64515E+00    rms(broyden)= 0.64514E+00
  rms(prec ) = 0.78910E+00
  weight for this iteration     100.00

 eigenvalues of (default mixing * dielectric matrix)
  average eigenvalue GAMMA=   1.5817
  7.9091  5.0060  2.4403  1.5087  1.5087  0.9502  0.9289  0.9289  0.7208  0.1981
  0.0220  0.0082  0.0082  0.0052

 Free energy of the ion-electron system (eV)
  ---------------------------------------------------
  alpha Z        PSCENC =         0.09131387
  Ewald energy   TEWEN  =        17.47667994
  -Hartree energ DENC   =       -67.97591114
  -exchange      EXHF   =         0.00000000
  -V(xc)+E(xc)   XCENC  =         9.77609616
  PAW double counting   =        41.21206610      -40.95542097
  entropy T*S    EENTRO =        -0.00000000
  eigenvalues    EBANDS =       -21.71325463
  atomic energy  EATOM  =        52.49568407
  Solvation  Ediel_sol  =         0.00000000
  ---------------------------------------------------
  free energy    TOTEN  =        -9.59274659 eV

  energy without entropy =       -9.59274659  energy(sigma->0) =       -9.59274659


--------------------------------------------------------------------------------------------------------




--------------------------------------- Iteration      1(  16)  ---------------------------------------


    POTLOK:  cpu time    1.0034: real time    1.1425
    SETDIJ:  cpu time    0.0066: real time    0.0085
     EDDAV:  cpu time    0.3348: real time    0.3548
       DOS:  cpu time    0.0002: real time    0.0004
    CHARGE:  cpu time    0.0892: real time    0.0899
    MIXING:  cpu time    0.0565: real time    0.0568
    --------------------------------------------
      LOOP:  cpu time    1.4906: real time    1.6528

 eigenvalue-minimisations  :    24
 total energy-change (2. order) : 0.9863568E+00  (-0.6595346E+00)
 number of electron       3.9999997 magnetization 
 augmentation part       -0.0019294 magnetization 

 Broyden mixing:
  rms(total) = 0.17370E+00    rms(broyden)= 0.17367E+00
  rms(prec ) = 0.21827E+00
  weight for this iteration     100.00

 eigenvalues of (default mixing * dielectric matrix)
  average eigenvalue GAMMA=   1.6221
  7.9289  5.7102  2.4076  1.5075  1.5075  1.3996  1.0465  1.0465  0.7676  0.7676
  0.1981  0.0220  0.0082  0.0082  0.0052

 Free energy of the ion-electron system (eV)
  ---------------------------------------------------
  alpha Z        PSCENC =         0.09131387
  Ewald energy   TEWEN  =        17.47667994
  -Hartree energ DENC   =       -52.67647038
  -exchange      EXHF   =         0.00000000
  -V(xc)+E(xc)   XCENC  =         7.97792938
  PAW double counting   =        67.47210028      -66.80984545
  entropy T*S    EENTRO =        -0.00000000
  eigenvalues    EBANDS =       -34.63378146
  atomic energy  EATOM  =        52.49568407
  Solvation  Ediel_sol  =         0.00000000
  ---------------------------------------------------
  free energy    TOTEN  =        -8.60638975 eV

  energy without entropy =       -8.60638975  energy(sigma->0) =       -8.60638975


--------------------------------------------------------------------------------------------------------




--------------------------------------- Iteration      1(  17)  ---------------------------------------


    POTLOK:  cpu time    0.9491: real time    1.2481
    SETDIJ:  cpu time    0.0070: real time    0.0071
     EDDAV:  cpu time    0.2034: real time    0.2231
       DOS:  cpu time    0.0001: real time    0.0002
    CHARGE:  cpu time    0.0854: real time    0.0897
    MIXING:  cpu time    0.0760: real time    0.0771
    --------------------------------------------
      LOOP:  cpu time    1.3211: real time    1.6454

 eigenvalue-minimisations  :    12
 total energy-change (2. order) : 0.9015411E-02  (-0.2740255E-02)
 number of electron       3.9999997 magnetization 
 augmentation part       -0.0013890 magnetization 

 Broyden mixing:
  rms(total) = 0.16722E+00    rms(broyden)= 0.16722E+00
  rms(prec ) = 0.20536E+00
  weight for this iteration     100.00

 eigenvalues of (default mixing * dielectric matrix)
  average eigenvalue GAMMA=   1.7214
  8.6120  5.7271  3.3583  1.9165  1.4842  1.4842  1.3017  0.9192  0.8721  0.8721
  0.7531  0.1981  0.0220  0.0082  0.0082  0.0052

 Free energy of the ion-electron system (eV)
  ---------------------------------------------------
  alpha Z        PSCENC =         0.09131387
  Ewald energy   TEWEN  =        17.47667994
  -Hartree energ DENC   =       -53.16154881
  -exchange      EXHF   =         0.00000000
  -V(xc)+E(xc)   XCENC  =         8.02516179
  PAW double counting   =        66.92146379      -66.26360099
  entropy T*S    EENTRO =        -0.00000000
  eigenvalues    EBANDS =       -34.18252801
  atomic energy  EATOM  =        52.49568407
  Solvation  Ediel_sol  =         0.00000000
  ---------------------------------------------------
  free energy    TOTEN  =        -8.59737434 eV

  energy without entropy =       -8.59737434  energy(sigma->0) =       -8.59737434


--------------------------------------------------------------------------------------------------------




--------------------------------------- Iteration      1(  18)  ---------------------------------------


    POTLOK:  cpu time    1.0047: real time    1.0802
    SETDIJ:  cpu time    0.0064: real time    0.0065
     EDDAV:  cpu time    0.2578: real time    0.2780
       DOS:  cpu time    0.0002: real time    0.0003
    CHARGE:  cpu time    0.0752: real time    0.0804
    MIXING:  cpu time    0.0861: real time    0.0874
    --------------------------------------------
      LOOP:  cpu time    1.4304: real time    1.5329

 eigenvalue-minimisations  :    18
 total energy-change (2. order) : 0.1233740E-01  (-0.1865309E-01)
 number of electron       3.9999997 magnetization 
 augmentation part       -0.0026304 magnetization 

 Broyden mixing:
  rms(total) = 0.83516E-01    rms(broyden)= 0.83514E-01
  rms(prec ) = 0.94480E-01
  weight for this iteration     100.00

 eigenvalues of (default mixing * dielectric matrix)
  average eigenvalue GAMMA=   1.7254
  9.0693  5.0659  4.2478  2.2921  1.4948  1.4948  1.0610  0.9526  0.9526  0.8539
  0.8539  0.7511  0.1981  0.0220  0.0082  0.0082  0.0052

 Free energy of the ion-electron system (eV)
  ---------------------------------------------------
  alpha Z        PSCENC =         0.09131387
  Ewald energy   TEWEN  =        17.47667994
  -Hartree energ DENC   =       -56.31369930
  -exchange      EXHF   =         0.00000000
  -V(xc)+E(xc)   XCENC  =         8.34724170
  PAW double counting   =        64.79053739      -64.17819023
  entropy T*S    EENTRO =        -0.00000000
  eigenvalues    EBANDS =       -31.29460440
  atomic energy  EATOM  =        52.49568407
  Solvation  Ediel_sol  =         0.00000000
  ---------------------------------------------------
  free energy    TOTEN  =        -8.58503694 eV

  energy without entropy =       -8.58503694  energy(sigma->0) =       -8.58503694


--------------------------------------------------------------------------------------------------------




--------------------------------------- Iteration      1(  19)  ---------------------------------------


    POTLOK:  cpu time    1.0329: real time    1.1714
    SETDIJ:  cpu time    0.0061: real time    0.0061
     EDDAV:  cpu time    0.2183: real time    0.2197
       DOS:  cpu time    0.0001: real time    0.0003
    CHARGE:  cpu time    0.0771: real time    0.0775
    MIXING:  cpu time    0.0679: real time    0.0683
    --------------------------------------------
      LOOP:  cpu time    1.4026: real time    1.5433

 eigenvalue-minimisations  :    18
 total energy-change (2. order) :-0.1265675E-01  (-0.1504309E-02)
 number of electron       3.9999997 magnetization 
 augmentation part       -0.0032329 magnetization 

 Broyden mixing:
  rms(total) = 0.73812E-01    rms(broyden)= 0.73811E-01
  rms(prec ) = 0.88531E-01
  weight for this iteration     100.00

 eigenvalues of (default mixing * dielectric matrix)
  average eigenvalue GAMMA=   1.8387
  9.3276  5.0557  5.0557  2.3988  2.3988  1.5038  1.5038  1.0830  1.0830  0.9372
  0.9372  0.8089  0.7621  0.1981  0.0220  0.0082  0.0082  0.0052

 Free energy of the ion-electron system (eV)
  ---------------------------------------------------
  alpha Z        PSCENC =         0.09131387
  Ewald energy   TEWEN  =        17.47667994
  -Hartree energ DENC   =       -57.11523774
  -exchange      EXHF   =         0.00000000
  -V(xc)+E(xc)   XCENC  =         8.42994501
  PAW double counting   =        64.03356977      -63.43861703
  entropy T*S    EENTRO =        -0.00000000
  eigenvalues    EBANDS =       -30.57103158
  atomic energy  EATOM  =        52.49568407
  Solvation  Ediel_sol  =         0.00000000
  ---------------------------------------------------
  free energy    TOTEN  =        -8.59769370 eV

  energy without entropy =       -8.59769370  energy(sigma->0) =       -8.59769370


--------------------------------------------------------------------------------------------------------




--------------------------------------- Iteration      1(  20)  ---------------------------------------


    POTLOK:  cpu time    1.0347: real time    1.0412
    SETDIJ:  cpu time    0.0065: real time    0.0066
     EDDAV:  cpu time    0.1687: real time    0.1698
       DOS:  cpu time    0.0002: real time    0.0003
    CHARGE:  cpu time    0.0728: real time    0.0731
    MIXING:  cpu time    0.0726: real time    0.0729
    --------------------------------------------
      LOOP:  cpu time    1.3555: real time    1.3639

 eigenvalue-minimisations  :    12
 total energy-change (2. order) :-0.8926333E-02  (-0.9403162E-04)
 number of electron       3.9999997 magnetization 
 augmentation part       -0.0032776 magnetization 

 Broyden mixing:
  rms(total) = 0.63328E-01    rms(broyden)= 0.63328E-01
  rms(prec ) = 0.78214E-01
  weight for this iteration     100.00

 eigenvalues of (default mixing * dielectric matrix)
  average eigenvalue GAMMA=   1.8465
  9.3755  5.1184  5.1184  3.2539  2.4368  1.5006  1.5006  1.0693  1.0693  1.0226
  0.7547  0.8699  0.8699  0.8825  0.1981  0.0220  0.0082  0.0082  0.0052

 Free energy of the ion-electron system (eV)
  ---------------------------------------------------
  alpha Z        PSCENC =         0.09131387
  Ewald energy   TEWEN  =        17.47667994
  -Hartree energ DENC   =       -57.08250046
  -exchange      EXHF   =         0.00000000
  -V(xc)+E(xc)   XCENC  =         8.41293614
  PAW double counting   =        62.14701934      -61.56563064
  entropy T*S    EENTRO =        -0.00000000
  eigenvalues    EBANDS =       -30.58212230
  atomic energy  EATOM  =        52.49568407
  Solvation  Ediel_sol  =         0.00000000
  ---------------------------------------------------
  free energy    TOTEN  =        -8.60662003 eV

  energy without entropy =       -8.60662003  energy(sigma->0) =       -8.60662003


--------------------------------------------------------------------------------------------------------




--------------------------------------- Iteration      1(  21)  ---------------------------------------


    POTLOK:  cpu time    1.0006: real time    1.0070
    SETDIJ:  cpu time    0.0070: real time    0.0071
     EDDAV:  cpu time    0.1719: real time    0.1729
       DOS:  cpu time    0.0001: real time    0.0003
    CHARGE:  cpu time    0.0799: real time    0.0804
    MIXING:  cpu time    0.0660: real time    0.0667
    --------------------------------------------
      LOOP:  cpu time    1.3256: real time    1.3343

 eigenvalue-minimisations  :    12
 total energy-change (2. order) :-0.7342261E-02  (-0.9233677E-04)
 number of electron       3.9999997 magnetization 
 augmentation part       -0.0033209 magnetization 

 Broyden mixing:
  rms(total) = 0.60699E-01    rms(broyden)= 0.60699E-01
  rms(prec ) = 0.76850E-01
  weight for this iteration     100.00

 eigenvalues of (default mixing * dielectric matrix)
  average eigenvalue GAMMA=   1.8127
  9.3444  5.0468  5.0468  3.5198  2.3522  1.5008  1.5008  1.2132  1.2132  1.0288
  0.8936  0.8936  0.7603  0.8760  0.8219  0.1981  0.0220  0.0082  0.0082  0.0052

 Free energy of the ion-electron system (eV)
  ---------------------------------------------------
  alpha Z        PSCENC =         0.09131387
  Ewald energy   TEWEN  =        17.47667994
  -Hartree energ DENC   =       -57.09446330
  -exchange      EXHF   =         0.00000000
  -V(xc)+E(xc)   XCENC  =         8.40711192
  PAW double counting   =        59.79681109      -59.23034960
  entropy T*S    EENTRO =        -0.00000000
  eigenvalues    EBANDS =       -30.55675029
  atomic energy  EATOM  =        52.49568407
  Solvation  Ediel_sol  =         0.00000000
  ---------------------------------------------------
  free energy    TOTEN  =        -8.61396229 eV

  energy without entropy =       -8.61396229  energy(sigma->0) =       -8.61396229


--------------------------------------------------------------------------------------------------------




--------------------------------------- Iteration      1(  22)  ---------------------------------------


    POTLOK:  cpu time    1.0394: real time    1.0456
    SETDIJ:  cpu time    0.0067: real time    0.0067
     EDDAV:  cpu time    0.1932: real time    0.1943
       DOS:  cpu time    0.0003: real time    0.0005
    CHARGE:  cpu time    0.0895: real time    0.0900
    MIXING:  cpu time    0.0700: real time    0.0703
    --------------------------------------------
      LOOP:  cpu time    1.3990: real time    1.4074

 eigenvalue-minimisations  :    12
 total energy-change (2. order) :-0.2946951E-02  (-0.2962163E-04)
 number of electron       3.9999997 magnetization 
 augmentation part       -0.0034371 magnetization 

 Broyden mixing:
  rms(total) = 0.61956E-01    rms(broyden)= 0.61956E-01
  rms(prec ) = 0.78786E-01
  weight for this iteration     100.00

 eigenvalues of (default mixing * dielectric matrix)
  average eigenvalue GAMMA=   1.8849
  9.2376  6.0875  4.2487  4.2487  2.3445  2.3445  1.5025  1.5025  1.2246  1.2246
  0.9707  0.9707  0.7582  0.8383  0.9188  0.9188  0.1981  0.0220  0.0082  0.0082
  0.0052

 Free energy of the ion-electron system (eV)
  ---------------------------------------------------
  alpha Z        PSCENC =         0.09131387
  Ewald energy   TEWEN  =        17.47667994
  -Hartree energ DENC   =       -57.04194342
  -exchange      EXHF   =         0.00000000
  -V(xc)+E(xc)   XCENC  =         8.40151452
  PAW double counting   =        59.63368080      -59.06818010
  entropy T*S    EENTRO =        -0.00000000
  eigenvalues    EBANDS =       -30.60565894
  atomic energy  EATOM  =        52.49568407
  Solvation  Ediel_sol  =         0.00000000
  ---------------------------------------------------
  free energy    TOTEN  =        -8.61690924 eV

  energy without entropy =       -8.61690924  energy(sigma->0) =       -8.61690924


--------------------------------------------------------------------------------------------------------




--------------------------------------- Iteration      1(  23)  ---------------------------------------


    POTLOK:  cpu time    1.0383: real time    1.0450
    SETDIJ:  cpu time    0.0068: real time    0.0068
     EDDAV:  cpu time    0.1856: real time    0.1868
       DOS:  cpu time    0.0002: real time    0.0003
    CHARGE:  cpu time    0.0950: real time    0.0956
    MIXING:  cpu time    0.0759: real time    0.0763
    --------------------------------------------
      LOOP:  cpu time    1.4017: real time    1.4107

 eigenvalue-minimisations  :    12
 total energy-change (2. order) : 0.1074849E-02  (-0.1920095E-03)
 number of electron       3.9999997 magnetization 
 augmentation part       -0.0035043 magnetization 

 Broyden mixing:
  rms(total) = 0.59050E-01    rms(broyden)= 0.59050E-01
  rms(prec ) = 0.74882E-01
  weight for this iteration     100.00

 eigenvalues of (default mixing * dielectric matrix)
  average eigenvalue GAMMA=   1.9444
  9.1122  6.7883  4.4998  4.4998  2.5254  2.5254  1.5021  1.5021  1.6995  1.4646
  1.0144  1.0144  0.7570  0.9417  0.9417  0.8499  0.8964  0.1981  0.0220  0.0082
  0.0082  0.0052

 Free energy of the ion-electron system (eV)
  ---------------------------------------------------
  alpha Z        PSCENC =         0.09131387
  Ewald energy   TEWEN  =        17.47667994
  -Hartree energ DENC   =       -56.78205104
  -exchange      EXHF   =         0.00000000
  -V(xc)+E(xc)   XCENC  =         8.37370074
  PAW double counting   =        60.33077768      -59.75723361
  entropy T*S    EENTRO =        -0.00000000
  eigenvalues    EBANDS =       -30.84470604
  atomic energy  EATOM  =        52.49568407
  Solvation  Ediel_sol  =         0.00000000
  ---------------------------------------------------
  free energy    TOTEN  =        -8.61583439 eV

  energy without entropy =       -8.61583439  energy(sigma->0) =       -8.61583439


--------------------------------------------------------------------------------------------------------




--------------------------------------- Iteration      1(  24)  ---------------------------------------


    POTLOK:  cpu time    1.0096: real time    1.0157
    SETDIJ:  cpu time    0.0061: real time    0.0061
     EDDAV:  cpu time    0.1975: real time    0.1992
       DOS:  cpu time    0.0002: real time    0.0003
    CHARGE:  cpu time    0.1038: real time    0.1046
    MIXING:  cpu time    0.0998: real time    0.1005
    --------------------------------------------
      LOOP:  cpu time    1.4169: real time    1.4263

 eigenvalue-minimisations  :    12
 total energy-change (2. order) :-0.8302677E-03  (-0.5727467E-05)
 number of electron       3.9999997 magnetization 
 augmentation part       -0.0035209 magnetization 

 Broyden mixing:
  rms(total) = 0.58477E-01    rms(broyden)= 0.58477E-01
  rms(prec ) = 0.74484E-01
  weight for this iteration     100.00

 eigenvalues of (default mixing * dielectric matrix)
  average eigenvalue GAMMA=   1.9658
  9.0529  7.2871  4.6541  4.6541  2.9485  2.4205  2.4205  1.5023  1.5023  1.2925
  1.0228  1.0228  0.9002  0.9002  0.9404  0.7584  0.8459  0.8459  0.1981  0.0220
  0.0082  0.0082  0.0052

 Free energy of the ion-electron system (eV)
  ---------------------------------------------------
  alpha Z        PSCENC =         0.09131387
  Ewald energy   TEWEN  =        17.47667994
  -Hartree energ DENC   =       -56.75699049
  -exchange      EXHF   =         0.00000000
  -V(xc)+E(xc)   XCENC  =         8.37043199
  PAW double counting   =        60.18971576      -59.61677416
  entropy T*S    EENTRO =        -0.00000000
  eigenvalues    EBANDS =       -30.86672563
  atomic energy  EATOM  =        52.49568407
  Solvation  Ediel_sol  =         0.00000000
  ---------------------------------------------------
  free energy    TOTEN  =        -8.61666466 eV

  energy without entropy =       -8.61666466  energy(sigma->0) =       -8.61666466


--------------------------------------------------------------------------------------------------------




--------------------------------------- Iteration      1(  25)  ---------------------------------------


    POTLOK:  cpu time    0.9948: real time    1.0008
    SETDIJ:  cpu time    0.0062: real time    0.0062
     EDDAV:  cpu time    0.2358: real time    0.2373
       DOS:  cpu time    0.0002: real time    0.0004
    CHARGE:  cpu time    0.1004: real time    0.1011
    MIXING:  cpu time    0.1134: real time    0.1142
    --------------------------------------------
      LOOP:  cpu time    1.4509: real time    1.4600

 eigenvalue-minimisations  :    18
 total energy-change (2. order) :-0.2801839E-02  (-0.2712865E-04)
 number of electron       3.9999997 magnetization 
 augmentation part       -0.0036482 magnetization 

 Broyden mixing:
  rms(total) = 0.59524E-01    rms(broyden)= 0.59524E-01
  rms(prec ) = 0.76875E-01
  weight for this iteration     100.00

 eigenvalues of (default mixing * dielectric matrix)
  average eigenvalue GAMMA=   1.9434
  9.0621  7.3875  4.6549  4.6549  3.3040  2.3838  2.3838  1.5024  1.5024  1.3410
  1.0715  1.0715  0.9429  0.9429  0.9564  0.8430  0.8430  0.7558  0.7961  0.1981
  0.0220  0.0082  0.0082  0.0052

 Free energy of the ion-electron system (eV)
  ---------------------------------------------------
  alpha Z        PSCENC =         0.09131387
  Ewald energy   TEWEN  =        17.47667994
  -Hartree energ DENC   =       -56.84870716
  -exchange      EXHF   =         0.00000000
  -V(xc)+E(xc)   XCENC  =         8.38058041
  PAW double counting   =        59.84116903      -59.27186971
  entropy T*S    EENTRO =        -0.00000000
  eigenvalues    EBANDS =       -30.78431696
  atomic energy  EATOM  =        52.49568407
  Solvation  Ediel_sol  =         0.00000000
  ---------------------------------------------------
  free energy    TOTEN  =        -8.61946650 eV

  energy without entropy =       -8.61946650  energy(sigma->0) =       -8.61946650


--------------------------------------------------------------------------------------------------------




--------------------------------------- Iteration      1(  26)  ---------------------------------------


    POTLOK:  cpu time    1.0021: real time    1.0095
    SETDIJ:  cpu time    0.0061: real time    0.0061
     EDDAV:  cpu time    0.1870: real time    0.1961
       DOS:  cpu time    0.0002: real time    0.0003
    CHARGE:  cpu time    0.0962: real time    0.0969
    MIXING:  cpu time    0.1097: real time    0.1105
    --------------------------------------------
      LOOP:  cpu time    1.4013: real time    1.4194

 eigenvalue-minimisations  :    12
 total energy-change (2. order) :-0.1284047E-02  (-0.9377938E-05)
 number of electron       3.9999997 magnetization 
 augmentation part       -0.0036889 magnetization 

 Broyden mixing:
  rms(total) = 0.60219E-01    rms(broyden)= 0.60219E-01
  rms(prec ) = 0.78283E-01
  weight for this iteration     100.00

 eigenvalues of (default mixing * dielectric matrix)
  average eigenvalue GAMMA=   2.0708
  8.8768  8.2396  4.8588  4.8588  3.6287  2.9235  2.9235  2.2943  1.5021  1.5021
  1.3148  1.3148  1.0135  1.0135  0.7576  0.9495  0.8416  0.8998  0.9077  0.9077
  0.1981  0.0220  0.0082  0.0082  0.0052

 Free energy of the ion-electron system (eV)
  ---------------------------------------------------
  alpha Z        PSCENC =         0.09131387
  Ewald energy   TEWEN  =        17.47667994
  -Hartree energ DENC   =       -56.90070833
  -exchange      EXHF   =         0.00000000
  -V(xc)+E(xc)   XCENC  =         8.38632886
  PAW double counting   =        59.45221098      -58.88560167
  entropy T*S    EENTRO =        -0.00000000
  eigenvalues    EBANDS =       -30.73665828
  atomic energy  EATOM  =        52.49568407
  Solvation  Ediel_sol  =         0.00000000
  ---------------------------------------------------
  free energy    TOTEN  =        -8.62075055 eV

  energy without entropy =       -8.62075055  energy(sigma->0) =       -8.62075055


--------------------------------------------------------------------------------------------------------




--------------------------------------- Iteration      1(  27)  ---------------------------------------


    POTLOK:  cpu time    1.0045: real time    1.0703
    SETDIJ:  cpu time    0.0061: real time    0.0124
     EDDAV:  cpu time    0.1563: real time    0.1589
       DOS:  cpu time    0.0002: real time    0.0003
    CHARGE:  cpu time    0.0866: real time    0.0872
    MIXING:  cpu time    0.1370: real time    0.1380
    --------------------------------------------
      LOOP:  cpu time    1.3907: real time    1.4670

 eigenvalue-minimisations  :    12
 total energy-change (2. order) :-0.5882128E-03  (-0.3377062E-05)
 number of electron       3.9999997 magnetization 
 augmentation part       -0.0037278 magnetization 

 Broyden mixing:
  rms(total) = 0.60975E-01    rms(broyden)= 0.60975E-01
  rms(prec ) = 0.79548E-01
  weight for this iteration     100.00

 eigenvalues of (default mixing * dielectric matrix)
  average eigenvalue GAMMA=   2.0748
  9.0261  7.6598  4.8405  4.8405  2.7143  3.5889  3.0123  3.0123  2.2959  1.5021
  1.5021  1.1984  1.1984  1.0029  1.0029  0.7576  0.9875  0.8386  0.9120  0.9046
  0.9046  0.1981  0.0220  0.0082  0.0082  0.0052

 Free energy of the ion-electron system (eV)
  ---------------------------------------------------
  alpha Z        PSCENC =         0.09131387
  Ewald energy   TEWEN  =        17.47667994
  -Hartree energ DENC   =       -56.92420909
  -exchange      EXHF   =         0.00000000
  -V(xc)+E(xc)   XCENC  =         8.38944694
  PAW double counting   =        59.20176808      -58.63648517
  entropy T*S    EENTRO =        -0.00000000
  eigenvalues    EBANDS =       -30.71553740
  atomic energy  EATOM  =        52.49568407
  Solvation  Ediel_sol  =         0.00000000
  ---------------------------------------------------
  free energy    TOTEN  =        -8.62133876 eV

  energy without entropy =       -8.62133876  energy(sigma->0) =       -8.62133876


--------------------------------------------------------------------------------------------------------




--------------------------------------- Iteration      1(  28)  ---------------------------------------


    POTLOK:  cpu time    0.9734: real time    0.9866
    SETDIJ:  cpu time    0.0073: real time    0.0073
     EDDAV:  cpu time    0.1004: real time    0.1010
       DOS:  cpu time    0.0001: real time    0.0003
    --------------------------------------------
      LOOP:  cpu time    1.0812: real time    1.0951

 eigenvalue-minimisations  :     6
 total energy-change (2. order) :-0.4082268E-04  (-0.1150486E-06)
 number of electron       3.9999997 magnetization 
 augmentation part       -0.0037278 magnetization 

 Free energy of the ion-electron system (eV)
  ---------------------------------------------------
  alpha Z        PSCENC =         0.09131387
  Ewald energy   TEWEN  =        17.47667994
  -Hartree energ DENC   =       -56.92606379
  -exchange      EXHF   =         0.00000000
  -V(xc)+E(xc)   XCENC  =         8.38982854
  PAW double counting   =        59.16334766      -58.59820400
  entropy T*S    EENTRO =        -0.00000000
  eigenvalues    EBANDS =       -30.71396587
  atomic energy  EATOM  =        52.49568407
  Solvation  Ediel_sol  =         0.00000000
  ---------------------------------------------------
  free energy    TOTEN  =        -8.62137958 eV

  energy without entropy =       -8.62137958  energy(sigma->0) =       -8.62137958


--------------------------------------------------------------------------------------------------------




 average (electrostatic) potential at core
  the test charge radii are     0.5201  0.9943
  (the norm of the test charge is              1.0000)
       1 -39.1165       2 -39.1164       3 -34.0259



 E-fermi :  -6.2702     XC(G=0):  -0.6151     alpha+bet : -0.1551

 Fermi energy:        -6.2702350516

 k-point     1 :       0.0000    0.0000    0.0000
  band No.  band energies     occupation 
      1      -8.1552      2.00000
      2      -7.2017      2.00000
      3      -1.4049      0.00000
      4      -1.4049      0.00000
      5      -0.1218      0.00000
      6       0.7948      0.00000


--------------------------------------------------------------------------------------------------------


 soft charge-density along one line, spin component           1
         0         1         2         3         4         5         6         7         8         9
 total charge-density along one line

 pseudopotential strength for first ion, spin component:           1
 -2.311  -3.977   0.000   0.000   0.001
 -3.977  -6.756   0.000   0.000   0.003
  0.000   0.000  -0.350  -0.000   0.000
  0.000   0.000  -0.000  -0.350   0.000
  0.001   0.003   0.000   0.000  -0.348
 total augmentation occupancy for first ion, spin component:           1
  2.739  -0.396  -0.000  -0.000  -0.187
 -0.396   0.058   0.000   0.000   0.027
 -0.000   0.000   0.000  -0.000  -0.000
  0.000   0.000  -0.000   0.000  -0.000
 -0.187   0.027   0.000   0.000   0.013


------------------------ aborting loop because EDIFF is reached ----------------------------------------


    CHARGE:  cpu time    0.0833: real time    0.0838
    FORLOC:  cpu time    0.0868: real time    0.0873
    FORNL :  cpu time    0.0237: real time    0.0237
    STRESS:  cpu time    0.3145: real time    0.3170
    FORCOR:  cpu time    1.1035: real time    1.1089
    FORHAR:  cpu time    0.3174: real time    0.3187
    MIXING:  cpu time    0.1145: real time    0.1153
    OFIELD:  cpu time    0.0000: real time    0.0000

[...]


    CHARGE:  cpu time    0.0797: real time    0.0802
    FORLOC:  cpu time    0.0873: real time    0.0877
    FORNL :  cpu time    0.0246: real time    0.0247
    STRESS:  cpu time    0.2834: real time    0.2841
    FORCOR:  cpu time    1.0729: real time    1.0839
    FORHAR:  cpu time    0.3298: real time    0.3316
    MIXING:  cpu time    0.0401: real time    0.0403
    OFIELD:  cpu time    0.0000: real time    0.0000

  FORCE on cell =-STRESS in cart. coord.  units (eV):
  Direction    XX          YY          ZZ          XY          YZ          ZX
  --------------------------------------------------------------------------------------
  Alpha Z     0.09198     0.09198     0.09198
  Ewald      38.22545   -10.62886   -10.62886    -0.00000     0.00000    -0.00000
  Hartree    30.17256    12.77251    12.77251    -0.00000    -0.00000    -0.00000
  E(xc)     -10.35311   -10.44353   -10.44353    -0.00000    -0.00000    -0.00000
  Local     -84.96055   -18.20659   -18.20659     0.00000     0.00000     0.00000
  n-local    -1.61565    -1.94938    -1.94938     0.00000     0.00000     0.00000
  augment     0.07533    -0.00687    -0.00687    -0.00000     0.00000    -0.00000
  Kinetic    28.24007    28.34220    28.34220     0.00000     0.00000     0.00000
  Fock        0.00000     0.00000     0.00000     0.00000     0.00000     0.00000
  -------------------------------------------------------------------------------------
  Total      -0.12393    -0.02853    -0.02853     0.00000     0.00000     0.00000
  in kB      -0.18170    -0.04184    -0.04184     0.00000     0.00000     0.00000
  external pressure =       -0.09 kB  Pullay stress =        0.00 kB


 VOLUME and BASIS-vectors are now :
 -----------------------------------------------------------------------------
  energy-cutoff  :      500.00
  volume of cell :     1092.73
      direct lattice vectors                 reciprocal lattice vectors
    10.387016821 -0.000000000  0.000000000     0.096274033 -0.000000000 -0.000000000
     0.000000000 10.256780468 -0.000000000     0.000000000  0.097496481 -0.000000000
     0.000000000  0.000000000 10.256780468    -0.000000000  0.000000000  0.097496481

  length of vectors
    10.387016821 10.256780468 10.256780468     0.096274033  0.097496481  0.097496481


 FORCES acting on ions
    electron-ion (+dipol)            ewald-force                    non-local-force                 convergence-correction
 -----------------------------------------------------------------------------------------------
   -.152E+02 -.173E-05 -.171E-05   0.177E+02 0.964E-18 0.962E-18   -.252E+01 -.291E-21 0.434E-21   0.505E-03 -.411E-11 -.411E-11
   0.152E+02 -.169E-05 -.169E-05   -.177E+02 -.195E-18 0.116E-17   0.252E+01 0.242E-21 -.494E-21   -.505E-03 0.368E-09 0.368E-09
   0.445E-06 -.531E-06 -.522E-06   -.239E-05 0.531E-17 -.370E-17   -.842E-23 0.465E-23 -.234E-23   0.209E-09 -.505E-08 -.505E-08
 -----------------------------------------------------------------------------------------------
   0.670E-05 -.395E-05 -.392E-05   0.178E-14 0.607E-17 -.158E-17   -.888E-15 -.439E-22 -.632E-22   0.210E-08 -.469E-08 -.469E-08


 POSITION                                       TOTAL-FORCE (eV/Angst)
 -----------------------------------------------------------------------------------
      3.01431      1.65152      1.65152        -0.037206     -0.000000      0.000000
      0.33066      1.65152      1.65152         0.037206      0.000000      0.000000
      1.67249      1.65152      1.65152        -0.000000      0.000000     -0.000000
 -----------------------------------------------------------------------------------
    total drift:                                0.000007     -0.000004     -0.000004


--------------------------------------------------------------------------------------------------------



  FREE ENERGIE OF THE ION-ELECTRON SYSTEM (eV)
  ---------------------------------------------------
  free  energy   TOTEN  =        -8.62556284 eV

  energy  without entropy=       -8.62556284  energy(sigma->0) =       -8.62556284

 d Force = 0.1603850E-03[-0.285E-03, 0.606E-03]  d Energy = 0.4183256E-02-0.402E-02
 d Force = 0.1367660E+00[ 0.136E+00, 0.138E+00]  d Ewald  = 0.5089330E+00-0.372E+00


--------------------------------------------------------------------------------------------------------


    POTLOK:  cpu time    1.0115: real time    1.0167


--------------------------------------------------------------------------------------------------------


 Steepest descent step on ions:
 trial-energy change:   -0.004183  1 .order   -0.003812   -0.008276    0.000651
  (g-gl).g = 0.828E-02      g.g   = 0.828E-02  gl.gl    = 0.000E+00
 g(Force)  = 0.561E-03   g(Stress)= 0.768E-02 ortho     = 0.000E+00
 gamma     =   0.00000
 trial     =   1.00000
 opt step  =   0.92564  (harmonic =   0.92564) maximal distance =0.00340505
 next E    =    -8.625771   (d E  =  -0.00381)


--------------------------------------------------------------------------------------------------------


    WAVPRE:  cpu time    0.2950: real time    2.3389
    FEWALD:  cpu time    0.0003: real time    0.0003
    GENKIN:  cpu time    0.0018: real time    0.0018
    ORTHCH:  cpu time    0.0053: real time    0.0054
     LOOP+:  cpu time   13.7012: real time   17.8624


--------------------------------------- Iteration      3(   1)  ---------------------------------------


    POTLOK:  cpu time    1.0018: real time    1.0602
    SETDIJ:  cpu time    0.0062: real time    0.0063
     EDDAV:  cpu time    0.1322: real time    0.1328
       DOS:  cpu time    0.0002: real time    0.0002
    CHARGE:  cpu time    0.0655: real time    0.0658
    MIXING:  cpu time    0.0318: real time    0.0318
    --------------------------------------------
      LOOP:  cpu time    1.2377: real time    1.2971

 eigenvalue-minimisations  :    12
 total energy-change (2. order) :-0.1212797E-03  (-0.4056965E-04)
 number of electron       3.9999996 magnetization 
 augmentation part       -0.0021720 magnetization 

 Broyden mixing:
  rms(total) = 0.12718E-02    rms(broyden)= 0.12707E-02
  rms(prec ) = 0.16628E-02
  weight for this iteration     100.00

 Free energy of the ion-electron system (eV)
  ---------------------------------------------------
  alpha Z        PSCENC =         0.09193099
  Ewald energy   TEWEN  =        17.00454887
  -Hartree energ DENC   =       -55.72297023
  -exchange      EXHF   =         0.00000000
  -V(xc)+E(xc)   XCENC  =         8.20994061
  PAW double counting   =        59.04098459      -58.49879880
  entropy T*S    EENTRO =        -0.00000000
  eigenvalues    EBANDS =       -31.24694708
  atomic energy  EATOM  =        52.49568407
  Solvation  Ediel_sol  =         0.00000000
  ---------------------------------------------------
  free energy    TOTEN  =        -8.62562698 eV

  energy without entropy =       -8.62562698  energy(sigma->0) =       -8.62562698


--------------------------------------------------------------------------------------------------------




--------------------------------------- Iteration      3(   2)  ---------------------------------------


    POTLOK:  cpu time    0.9397: real time    0.9426
    SETDIJ:  cpu time    0.0060: real time    0.0061
     EDDAV:  cpu time    0.1684: real time    0.1690
       DOS:  cpu time    0.0002: real time    0.0001
    --------------------------------------------
      LOOP:  cpu time    1.1142: real time    1.1178

 eigenvalue-minimisations  :    18
 total energy-change (2. order) :-0.1312697E-06  (-0.4843642E-06)
 number of electron       3.9999996 magnetization 
 augmentation part       -0.0021720 magnetization 

 Free energy of the ion-electron system (eV)
  ---------------------------------------------------
  alpha Z        PSCENC =         0.09193099
  Ewald energy   TEWEN  =        17.00454887
  -Hartree energ DENC   =       -55.73395903
  -exchange      EXHF   =         0.00000000
  -V(xc)+E(xc)   XCENC  =         8.21128111
  PAW double counting   =        59.10105794      -58.55898004
  entropy T*S    EENTRO =        -0.00000000
  eigenvalues    EBANDS =       -31.23719102
  atomic energy  EATOM  =        52.49568407
  Solvation  Ediel_sol  =         0.00000000
  ---------------------------------------------------
  free energy    TOTEN  =        -8.62562711 eV

  energy without entropy =       -8.62562711  energy(sigma->0) =       -8.62562711


--------------------------------------------------------------------------------------------------------




 average (electrostatic) potential at core
  the test charge radii are     0.5201  0.9943
  (the norm of the test charge is              1.0000)
       1 -39.5253       2 -39.5253       3 -33.8428



 E-fermi :  -6.4014     XC(G=0):  -0.7126     alpha+bet : -0.1561

 Fermi energy:        -6.4014070695

 k-point     1 :       0.0000    0.0000    0.0000
  band No.  band energies     occupation 
      1      -8.2725      2.00000
      2      -7.3461      2.00000
      3      -1.5000      0.00000
      4      -1.5000      0.00000
      5      -0.2356      0.00000
      6       0.6312      0.00000


--------------------------------------------------------------------------------------------------------


 soft charge-density along one line, spin component           1
         0         1         2         3         4         5         6         7         8         9


--------------------------------------- Iteration      3(   1)  ---------------------------------------


    POTLOK:  cpu time    1.0497: real time    1.2860
    SETDIJ:  cpu time    0.0063: real time    0.0063
     EDDAV:  cpu time    0.1705: real time    0.1717
       DOS:  cpu time    0.0002: real time    0.0002
    CHARGE:  cpu time    0.0824: real time    0.0829
    MIXING:  cpu time    0.0364: real time    0.0366
    --------------------------------------------
      LOOP:  cpu time    1.3456: real time    1.5837

 eigenvalue-minimisations  :    12
 total energy-change (2. order) :-0.1212797E-03  (-0.4056965E-04)
 number of electron       3.9999996 magnetization 
 augmentation part       -0.0021720 magnetization 

 Broyden mixing:
  rms(total) = 0.12718E-02    rms(broyden)= 0.12707E-02
  rms(prec ) = 0.16628E-02
  weight for this iteration     100.00

 Free energy of the ion-electron system (eV)
  ---------------------------------------------------
  alpha Z        PSCENC =         0.09193099
  Ewald energy   TEWEN  =        17.00454887
  -Hartree energ DENC   =       -55.72297023
  -exchange      EXHF   =         0.00000000
  -V(xc)+E(xc)   XCENC  =         8.20994061
  PAW double counting   =        59.04098459      -58.49879880
  entropy T*S    EENTRO =        -0.00000000
  eigenvalues    EBANDS =       -31.24694708
  atomic energy  EATOM  =        52.49568407
  Solvation  Ediel_sol  =         0.00000000
  ---------------------------------------------------
  free energy    TOTEN  =        -8.62562698 eV

  energy without entropy =       -8.62562698  energy(sigma->0) =       -8.62562698


--------------------------------------------------------------------------------------------------------




--------------------------------------- Iteration      3(   2)  ---------------------------------------


    POTLOK:  cpu time    1.0056: real time    1.0101
    SETDIJ:  cpu time    0.0066: real time    0.0066
     EDDAV:  cpu time    0.2306: real time    0.2586
       DOS:  cpu time    0.0002: real time    0.0003
    --------------------------------------------
      LOOP:  cpu time    1.2429: real time    1.2756

 eigenvalue-minimisations  :    18
 total energy-change (2. order) :-0.1312697E-06  (-0.4843642E-06)
 number of electron       3.9999996 magnetization 
 augmentation part       -0.0021720 magnetization 

 Free energy of the ion-electron system (eV)
  ---------------------------------------------------
  alpha Z        PSCENC =         0.09193099
  Ewald energy   TEWEN  =        17.00454887
  -Hartree energ DENC   =       -55.73395903
  -exchange      EXHF   =         0.00000000
  -V(xc)+E(xc)   XCENC  =         8.21128111
  PAW double counting   =        59.10105794      -58.55898004
  entropy T*S    EENTRO =        -0.00000000
  eigenvalues    EBANDS =       -31.23719102
  atomic energy  EATOM  =        52.49568407
  Solvation  Ediel_sol  =         0.00000000
  ---------------------------------------------------
  free energy    TOTEN  =        -8.62562711 eV

  energy without entropy =       -8.62562711  energy(sigma->0) =       -8.62562711


--------------------------------------------------------------------------------------------------------




 average (electrostatic) potential at core
  the test charge radii are     0.5201  0.9943
  (the norm of the test charge is              1.0000)
       1 -39.5253       2 -39.5253       3 -33.8428



 E-fermi :  -6.4014     XC(G=0):  -0.7126     alpha+bet : -0.1561

 Fermi energy:        -6.4014070695

 k-point     1 :       0.0000    0.0000    0.0000
  band No.  band energies     occupation 
      1      -8.2725      2.00000
      2      -7.3461      2.00000
      3      -1.5000      0.00000
      4      -1.5000      0.00000
      5      -0.2356      0.00000
      6       0.6312      0.00000


--------------------------------------------------------------------------------------------------------


 soft charge-density along one line, spin component           1
         0         1         2         3         4         5         6         7         8         9
 total charge-density along one line

 pseudopotential strength for first ion, spin component:           1
 -2.317  -3.988   0.000   0.000   0.001
 -3.988  -6.778   0.000   0.000   0.003
  0.000   0.000  -0.349  -0.000   0.000
  0.000   0.000  -0.000  -0.349   0.000
  0.001   0.003   0.000   0.000  -0.348
 total augmentation occupancy for first ion, spin component:           1
  2.690  -0.371   0.000   0.000  -0.181
 -0.371   0.052  -0.000  -0.000   0.025
  0.000   0.000   0.000   0.000   0.000
  0.000   0.000   0.000   0.000   0.000
 -0.181   0.025   0.000  -0.000   0.012


------------------------ aborting loop because EDIFF is reached ----------------------------------------


    CHARGE:  cpu time    0.0878: real time    0.0911
    FORLOC:  cpu time    0.0862: real time    0.0943
    FORNL :  cpu time    0.0242: real time    0.0262
    STRESS:  cpu time    0.3076: real time    0.3359
    FORCOR:  cpu time    1.0524: real time    1.2170
    FORHAR:  cpu time    0.3395: real time    0.3906
    MIXING:  cpu time    0.0329: real time    0.0414
    OFIELD:  cpu time    0.0000: real time    0.0000

  FORCE on cell =-STRESS in cart. coord.  units (eV):
  Direction    XX          YY          ZZ          XY          YZ          ZX
  --------------------------------------------------------------------------------------
  Alpha Z     0.    4ORBIT:  cpu time    0.0001: real time    0.0036

 total amount of memory used by VASP MPI-rank0   170365. kBytes
=======================================================================

   base      :      30000. kBytes
   nonl-proj :       3586. kBytes
   fftplans  :      48668. kBytes
   grid      :      86754. kBytes
   one-center:         12. kBytes
   wavefun   :       1345. kBytes

  
  
 General timing and accounting informations for this job:
 ========================================================
  
                  Total CPU time used (sec):       68.028
                            User time (sec):       66.781
                          System time (sec):        1.247
                         Elapsed time (sec):       83.953
  
                   Maximum memory used (kb):      375820.
                   Average memory used (kb):          N/A
  
                          Minor page faults:       236101
                          Major page faults:          295
                 Voluntary context switches:         5179
--------------------------------------------------------------------------
  energy-cutoff  :      500.00
  volume of cell :     1093.52
      direct lattice vectors                 reciprocal lattice vectors
    10.383394731  0.000000000  0.000000000     0.096307617 -0.000000000  0.000000000
     0.000000000 10.262280870 -0.000000000    -0.000000000  0.097444224  0.000000000
    -0.000000000 -0.000000000 10.262280870    -0.000000000  0.000000000  0.097444224

  length of vectors
    10.383394731 10.262280870 10.262280870     0.096307617  0.097444224  0.097444224


 FORCES acting on ions
    electron-ion (+dipol)            ewald-force                    non-local-force                 convergence-correction
 -----------------------------------------------------------------------------------------------
   -.152E+02 -.176E-05 -.174E-05   0.177E+02 -.159E-17 -.391E-18   -.253E+01 0.671E-22 -.155E-21   0.230E-02 0.150E-08 0.150E-08
   0.152E+02 -.171E-05 -.172E-05   -.177E+02 -.873E-18 0.323E-17   0.253E+01 -.382E-21 0.122E-22   -.230E-02 0.814E-08 0.814E-08
   0.562E-06 -.546E-06 -.537E-06   -.239E-05 0.609E-18 0.288E-17   -.953E-23 -.397E-22 -.469E-22   -.112E-07 -.157E-08 -.157E-08
 -----------------------------------------------------------------------------------------------
   0.679E-05 -.402E-05 -.400E-05   0.873E-18 -.185E-17 0.572E-17   -.953E-23 -.355E-21 -.190E-21   0.124E-07 0.807E-08 0.807E-08


 POSITION                                       TOTAL-FORCE (eV/Angst)
 -----------------------------------------------------------------------------------
      3.01285      1.65240      1.65240        -0.025935     -0.000000      0.000000
      0.33095      1.65240      1.65240         0.025935      0.000000     -0.000000
      1.67176      1.65232      1.65232         0.000000     -0.000000     -0.000000
 -----------------------------------------------------------------------------------
    total drift:                                0.000007     -0.000004     -0.000004


--------------------------------------------------------------------------------------------------------



  FREE ENERGIE OF THE ION-ELECTRON SYSTEM (eV)
  ---------------------------------------------------
  free  energy   TOTEN  =        -8.62562711 eV

  energy  without entropy=       -8.62562711  energy(sigma->0) =       -8.62562711

 d Force = 0.1760136E-04[ 0.145E-04, 0.207E-04]  d Energy = 0.6427641E-04-0.467E-04
 d Force =-0.9828755E-02[-0.984E-02,-0.982E-02]  d Ewald  =-0.3680196E-01 0.270E-01


--------------------------------------------------------------------------------------------------------


    POTLOK:  cpu time    1.0130: real time    1.0807


--------------------------------------------------------------------------------------------------------




--------------------------------------------------------------------------------------------------------


  
 reached required accuracy - stopping structural energy minimisation
 writing wavefunctions
     LOOP+:  cpu time    5.4991: real time    9.0773
    4ORBIT:  cpu time    0.0000: real time    0.0000

 total amount of memory used by VASP MPI-rank0   170365. kBytes
=======================================================================

   base      :      30000. kBytes
   nonl-proj :       3586. kBytes
   fftplans  :      48668. kBytes
   grid      :      86754. kBytes
   one-center:         12. kBytes
   wavefun   :       1345. kBytes

  
  
 General timing and accounting informations for this job:
 ========================================================
  
                  Total CPU time used (sec):       68.719
                            User time (sec):       67.447
                          System time (sec):        1.272
                         Elapsed time (sec):       90.790
  
                   Maximum memory used (kb):      375344.
                   Average memory used (kb):          N/A
  
                          Minor page faults:       218863
                          Major page faults:          138
                 Voluntary context switches:         7189
