 vasp.6.2.1 16May21 (build Dec 20 2021 17:15:01) gamma-only                      
 executed on             LinuxGNU date 2026.02.02  13:58:36
 running on    1 total cores
 distrk:  each k-point on    1 cores,    1 groups
 distr:  one band on NCORE=   1 cores,    1 groups


--------------------------------------------------------------------------------------------------------


 INCAR:
   ISMEAR = 0
   NSW = 5
   IBRION = 2
   ISIF = 3

 POTCAR:    PAW_PBE H 15Jun2001                   
 POTCAR:    PAW_PBE Be_GW 04Mar2008               
 POTCAR:    PAW_PBE H 15Jun2001                   
   VRHFIN =H: ultrasoft test                                                                        
   LEXCH  = PE                                                                                      
   EATOM  =    12.4884 eV,    0.9179 Ry                                                             
                                                                                                    
   TITEL  = PAW_PBE H 15Jun2001                                                                     
   LULTRA =        F    use ultrasoft PP ?                                                          
   IUNSCR =        0    unscreen: 0-lin 1-nonlin 2-no                                               
   RPACOR =    0.000    partial core radius                                                         
   POMASS =    1.000; ZVAL   =    1.000    mass and valenz                                          
   RCORE  =    1.100    outmost cutoff radius                                                       
   RWIGS  =    0.700; RWIGS  =    0.370    wigner-seitz radius (au A)                               
   ENMAX  =  250.000; ENMIN  =  200.000 eV                                                          
   RCLOC  =    0.701    cutoff for local pot                                                        
   LCOR   =        T    correct aug charges                                                         
   LPAW   =        T    paw PP                                                                      
   EAUG   =  400.000                                                                                
   RMAX   =    1.123    core radius for proj-oper                                                   
   RAUG   =    1.200    factor for augmentation sphere                                              
   RDEP   =    1.112    radius for radial grids                                                     
   RDEPT  =    0.926    core radius for aug-charge                                                  
                                                                                                    
   Atomic configuration                                                                             
    2 entries                                                                                       
     n  l   j            E        occ.                                                              
     1  0  0.50        -6.4927   1.0000                                                             
     2  1  0.50        -3.4015   0.0000                                                             
   Description                                                                                      
     l       E           TYP  RCUT    TYP  RCUT                                                     
     0     -6.4927494     23  1.100                                                                 
     0      6.8029130     23  1.100                                                                 
     1     -4.0817478     23  1.100                                                                 
  local pseudopotential read in
  atomic valenz-charges read in
  non local Contribution for L=           0  read in
    real space projection operators read in
  non local Contribution for L=           0  read in
    real space projection operators read in
  non local Contribution for L=           1  read in
    real space projection operators read in
    PAW grid and wavefunctions read in

   number of l-projection  operators is LMAX  =           3
   number of lm-projection operators is LMMAX =           5

 POTCAR:    PAW_PBE Be_GW 04Mar2008               
   VRHFIN =Be: s2p0                                                                                 
   LEXCH  = PE                                                                                      
   EATOM  =    27.5229 eV,    2.0229 Ry                                                             
                                                                                                    
   TITEL  = PAW_PBE Be_GW 04Mar2008                                                                 
   LULTRA =        F    use ultrasoft PP ?                                                          
   IUNSCR =        1    unscreen: 0-lin 1-nonlin 2-no                                               
   RPACOR =    1.580    partial core radius                                                         
   POMASS =    9.013; ZVAL   =    2.000    mass and valenz                                          
   RCORE  =    1.900    outmost cutoff radius                                                       
   RWIGS  =    1.900; RWIGS  =    1.005    wigner-seitz radius (au A)                               
   ENMAX  =  247.543; ENMIN  =  185.657 eV                                                          
   RCLOC  =    1.409    cutoff for local pot                                                        
   LCOR   =        T    correct aug charges                                                         
   LPAW   =        T    paw PP                                                                      
   EAUG   =  527.985                                                                                
   DEXC   =    0.000                                                                                
   RMAX   =    1.944    core radius for proj-oper                                                   
   RAUG   =    1.300    factor for augmentation sphere                                              
   RDEP   =    2.003    radius for radial grids                                                     
   RDEPT  =    1.802    core radius for aug-charge                                                  
                                                                                                    
   Atomic configuration                                                                             
    4 entries                                                                                       
     n  l   j            E        occ.                                                              
     1  0  0.50      -106.2290   2.0000                                                             
     2  0  0.50        -5.6115   1.9999                                                             
     2  1  0.50        -2.0196   0.0010                                                             
     3  2  1.50        -1.3606   0.0000                                                             
   Description                                                                                      
     l       E           TYP  RCUT    TYP  RCUT                                                     
     0     -5.6114891     23  1.900                                                                 
     0     68.0291300     23  1.900                                                                 
     1     -2.0196155     23  1.900                                                                 
     1     54.4233040     23  1.900                                                                 
     2     54.4233040     23  1.900                                                                 
  local pseudopotential read in
  partial core-charges read in
  partial kinetic energy density read in
  kinetic energy density of atom read in
  atomic valenz-charges read in
  non local Contribution for L=           0  read in
    real space projection operators read in
  non local Contribution for L=           0  read in
    real space projection operators read in
  non local Contribution for L=           1  read in
    real space projection operators read in
  non local Contribution for L=           1  read in
    real space projection operators read in
  non local Contribution for L=           2  read in
    real space projection operators read in
    PAW grid and wavefunctions read in

   number of l-projection  operators is LMAX  =           5
   number of lm-projection operators is LMMAX =          13

  PAW_PBE H 15Jun2001                   :
 energy of atom  1       EATOM=  -12.4884
 kinetic energy error for atom=    0.0868 (will be added to EATOM!!)
  PAW_PBE Be_GW 04Mar2008               :
 energy of atom  2       EATOM=  -27.5229
 kinetic energy error for atom=    0.0006 (will be added to EATOM!!)


 POSCAR: BeH2
  positions in cartesian coordinates
  velocities in cartesian coordinates
  No initial velocities read in
 exchange correlation table for  LEXCH =        8
   RHO(1)=    0.500       N(1)  =     2000
   RHO(2)=  100.500       N(2)  =     4000



--------------------------------------------------------------------------------------------------------


 ion  position               nearest neighbor table
   1  0.900  0.500  0.500-   2 0.67   3 1.33
   2  0.100  0.500  0.500-   1 0.67   3 1.33
   3  0.500  0.500  0.500-   1 1.33   2 1.33

  LATTYP: Found a simple cubic cell.
 ALAT       =     3.3250000477
  
  Lattice vectors:
  
 A1 = (   3.3250000477,   0.0000000000,   0.0000000000)
 A2 = (   0.0000000000,   3.3250000477,   0.0000000000)
 A3 = (   0.0000000000,   0.0000000000,   3.3250000477)


Analysis of symmetry for initial positions (statically):
=====================================================================
 Subroutine PRICEL returns:
 Original cell was already a primitive cell.
 

 Routine SETGRP: Setting up the symmetry group for a 
 simple cubic supercell.


 Subroutine GETGRP returns: Found 16 space group operations
 (whereof 16 operations were pure point group operations)
 out of a pool of 48 trial point group operations.


The static configuration has the point symmetry D_4h.


Analysis of symmetry for dynamics (positions and initial velocities):
=====================================================================
 Subroutine PRICEL returns:
 Original cell was already a primitive cell.
 

 Routine SETGRP: Setting up the symmetry group for a 
 simple cubic supercell.


 Subroutine GETGRP returns: Found 16 space group operations
 (whereof 16 operations were pure point group operations)
 out of a pool of 48 trial point group operations.


The dynamic configuration has the point symmetry D_4h.


 Subroutine INISYM returns: Found 16 space group operations
 (whereof 16 operations are pure point group operations),
 and found     1 'primitive' translations


----------------------------------------------------------------------------------------

                                     Primitive cell                                     

  volume of cell :      36.7600

  direct lattice vectors                    reciprocal lattice vectors
     3.325000048  0.000000000  0.000000000     0.300751875  0.000000000  0.000000000
     0.000000000  3.325000048  0.000000000     0.000000000  0.300751875  0.000000000
     0.000000000  0.000000000  3.325000048     0.000000000  0.000000000  0.300751875

  length of vectors
     3.325000048  3.325000048  3.325000048     0.300751875  0.300751875  0.300751875

  position of ions in fractional coordinates (direct lattice)
     0.899999976  0.500000000  0.500000000
     0.099999994  0.500000000  0.500000000
     0.500000000  0.500000000  0.500000000

  ion indices of the primitive-cell ions
   primitive index   ion index
                 1           1
                 2           2
                 3           3

----------------------------------------------------------------------------------------



 KPOINTS: Gamma-point only                        

Automatic generation of k-mesh.
 Grid dimensions read from file:
 generate k-points for:    1    1    1

 Generating k-lattice:

  Cartesian coordinates                     Fractional coordinates (reciprocal lattice)
     0.300751875  0.000000000  0.000000000     1.000000000  0.000000000  0.000000000
     0.000000000  0.300751875  0.000000000     0.000000000  1.000000000  0.000000000
     0.000000000  0.000000000  0.300751875     0.000000000  0.000000000  1.000000000

  Length of vectors
     0.300751875  0.300751875  0.300751875

  Shift w.r.t. Gamma in fractional coordinates (k-lattice)
     0.000000000  0.000000000  0.000000000

 
 Subroutine IBZKPT returns following result:
 ===========================================
 
 Found      1 irreducible k-points:
 
 Following reciprocal coordinates:
            Coordinates               Weight
  0.000000  0.000000  0.000000      1.000000
 
 Following cartesian coordinates:
            Coordinates               Weight
  0.000000  0.000000  0.000000      1.000000
 


--------------------------------------------------------------------------------------------------------




 Dimension of arrays:
   k-points           NKPTS =      1   k-points in BZ     NKDIM =      1   number of bands    NBANDS=      6
   number of dos      NEDOS =    301   number of ions     NIONS =      3
   non local maximal  LDIM  =      5   non local SUM 2l+1 LMDIM =     13
   total plane-waves  NPLWV =   2744
   max r-space proj   IRMAX =      1   max aug-charges    IRDMAX=   2734
   dimension x,y,z NGX =    14 NGY =   14 NGZ =   14
   dimension x,y,z NGXF=    28 NGYF=   28 NGZF=   28
   support grid    NGXF=    28 NGYF=   28 NGZF=   28
   ions per type =               2   1
   NGX,Y,Z   is equivalent  to a cutoff of   7.00,  7.00,  7.00 a.u.
   NGXF,Y,Z  is equivalent  to a cutoff of  14.00, 14.00, 14.00 a.u.

 SYSTEM =  unknown system                          
 POSCAR =  BeH2                                    

 Startparameter for this run:
   NWRITE =      2    write-flag & timer
   PREC   = normal    normal or accurate (medium, high low for compatibility)
   ISTART =      1    job   : 0-new  1-cont  2-samecut
   ICHARG =      0    charge: 1-file 2-atom 10-const
   ISPIN  =      1    spin polarized calculation?
   LNONCOLLINEAR =      F non collinear calculations
   LSORBIT =      F    spin-orbit coupling
   INIWAV =      1    electr: 0-lowe 1-rand  2-diag
   LASPH  =      F    aspherical Exc in radial PAW
 Electronic Relaxation 1
   ENCUT  =  250.0 eV  18.37 Ry    4.29 a.u.   4.29  4.29  4.29*2*pi/ulx,y,z
   ENINI  =  250.0     initial cutoff
   ENAUG  =  528.0 eV  augmentation charge cutoff
   NELM   =     60;   NELMIN=  2; NELMDL=  0     # of ELM steps 
   EDIFF  = 0.1E-03   stopping-criterion for ELM
   LREAL  =      F    real-space projection
   NLSPLINE    = F    spline interpolate recip. space projectors
   LCOMPAT=      F    compatible to vasp.4.4
   GGA_COMPAT  = T    GGA compatible to vasp.4.4-vasp.4.6
   LMAXPAW     = -100 max onsite density
   LMAXMIX     =    2 max onsite mixed and CHGCAR
   VOSKOWN=      0    Vosko Wilk Nusair interpolation
   ROPT   =    0.00000   0.00000
 Ionic relaxation
   EDIFFG = 0.1E-02   stopping-criterion for IOM
   NSW    =      5    number of steps for IOM
   NBLOCK =      1;   KBLOCK =      5    inner block; outer block 
   IBRION =      2    ionic relax: 0-MD 1-quasi-New 2-CG
   NFREE  =      1    steps in history (QN), initial steepest desc. (CG)
   ISIF   =      3    stress and relaxation
   IWAVPR =     11    prediction:  0-non 1-charg 2-wave 3-comb
   ISYM   =      2    0-nonsym 1-usesym 2-fastsym
   LCORR  =      T    Harris-Foulkes like correction to forces

   POTIM  = 0.5000    time-step for ionic-motion
   TEIN   =    0.0    initial temperature
   TEBEG  =    0.0;   TEEND  =   0.0 temperature during run
   SMASS  =  -3.00    Nose mass-parameter (am)
   estimated Nose-frequenzy (Omega)   =  0.10E-29 period in steps = 0.13E+47 mass=  -0.253E-27a.u.
   SCALEE = 1.0000    scale energy and forces
   NPACO  =    256;   APACO  = 16.0  distance and # of slots for P.C.
   PSTRESS=    0.0 pullay stress

  Mass of Ions in am
   POMASS =   1.00  9.01
  Ionic Valenz
   ZVAL   =   1.00  2.00
  Atomic Wigner-Seitz radii
   RWIGS  =  -1.00 -1.00
  virtual crystal weights 
   VCA    =   1.00  1.00
   NELECT =       4.0000    total number of electrons
   NUPDOWN=      -1.0000    fix difference up-down

 DOS related values:
   EMIN   =  10.00;   EMAX   =-10.00  energy-range for DOS
   EFERMI =   0.00
   ISMEAR =     0;   SIGMA  =   0.20  broadening in eV -4-tet -1-fermi 0-gaus

 Electronic relaxation 2 (details)
   IALGO  =     38    algorithm
   LDIAG  =      T    sub-space diagonalisation (order eigenvalues)
   LSUBROT=      F    optimize rotation matrix (better conditioning)
   TURBO    =      0    0=normal 1=particle mesh
   IRESTART =      0    0=no restart 2=restart with 2 vectors
   NREBOOT  =      0    no. of reboots
   NMIN     =      0    reboot dimension
   EREF     =   0.00    reference energy to select bands
   IMIX   =      4    mixing-type and parameters
     AMIX     =   0.40;   BMIX     =  1.00
     AMIX_MAG =   1.60;   BMIX_MAG =  1.00
     AMIN     =   0.10
     WC   =   100.;   INIMIX=   1;  MIXPRE=   1;  MAXMIX= -45

 Intra band minimization:
   WEIMIN = 0.0010     energy-eigenvalue tresh-hold
   EBREAK =  0.42E-05  absolut break condition
   DEPER  =   0.30     relativ break condition  

   TIME   =   0.40     timestep for ELM

  volume/ion in A,a.u.               =      12.25        82.69
  Fermi-wavevector in a.u.,A,eV,Ry     =   0.781574  1.476960  8.311216  0.610857
  Thomas-Fermi vector in A             =   1.885119

 Write flags
   LWAVE        =      T    write WAVECAR
   LDOWNSAMPLE  =      F    k-point downsampling of WAVECAR
   LCHARG       =      T    write CHGCAR
   LVTOT        =      F    write LOCPOT, total local potential
   LVHAR        =      F    write LOCPOT, Hartree potential only
   LELF         =      F    write electronic localiz. function (ELF)
   LORBIT       =      0    0 simple, 1 ext, 2 COOP (PROOUT), +10 PAW based schemes


 Dipole corrections
   LMONO  =      F    monopole corrections only (constant potential shift)
   LDIPOL =      F    correct potential (dipole corrections)
   IDIPOL =      0    1-x, 2-y, 3-z, 4-all directions 
   EPSILON=  1.0000000 bulk dielectric constant

 Exchange correlation treatment:
   GGA     =    --    GGA type
   LEXCH   =     8    internal setting for exchange type
   VOSKOWN=      0    Vosko Wilk Nusair interpolation
   LHFCALC =     F    Hartree Fock is set to
   LHFONE  =     F    Hartree Fock one center treatment
   AEXX    =    0.0000 exact exchange contribution

 Linear response parameters
   LEPSILON=     F    determine dielectric tensor
   LRPA    =     F    only Hartree local field effects (RPA)
   LNABLA  =     F    use nabla operator in PAW spheres
   LVEL    =     F    velocity operator in full k-point grid
   LINTERFAST=   F  fast interpolation
   KINTER  =     0    interpolate to denser k-point grid
   CSHIFT  =0.1000    complex shift for real part using Kramers Kronig
   OMEGAMAX=  -1.0    maximum frequency
   DEG_THRESHOLD= 0.2000000E-02 threshold for treating states as degnerate
   RTIME   =   -0.100 relaxation time in fs
  (WPLASMAI=    0.000 imaginary part of plasma frequency in eV, 0.658/RTIME)
   DFIELD  = 0.0000000 0.0000000 0.0000000 field for delta impulse in time

 Orbital magnetization related:
   ORBITALMAG=     F  switch on orbital magnetization
   LCHIMAG   =     F  perturbation theory with respect to B field
   DQ        =  0.001000  dq finite difference perturbation B field
   LLRAUG    =     F  two centre corrections for induced B field



--------------------------------------------------------------------------------------------------------


 conjugate gradient relaxation of ions
 charge density and potential will be updated during run
 non-spin polarized calculation
 Variant of blocked Davidson
 Davidson routine will perform the subspace rotation
 perform sub-space diagonalisation
    after iterative eigenvector-optimisation
 modified Broyden-mixing scheme, WC =      100.0
 initial mixing is a Kerker type mixing with AMIX =  0.4000 and BMIX =      1.0000
 Hartree-type preconditioning will be used
 using additional bands            4
 reciprocal scheme for non local part
 use partial core corrections
 calculate Harris-corrections to forces   (improved forces if not selfconsistent)
 use gradient corrections 
 use of overlap-Matrix (Vanderbilt PP)
 Gauss-broadening in eV      SIGMA  =   0.20


--------------------------------------------------------------------------------------------------------


  energy-cutoff  :      250.00
  volume of cell :       36.76
      direct lattice vectors                 reciprocal lattice vectors
     3.325000048  0.000000000  0.000000000     0.300751875  0.000000000  0.000000000
     0.000000000  3.325000048  0.000000000     0.000000000  0.300751875  0.000000000
     0.000000000  0.000000000  3.325000048     0.000000000  0.000000000  0.300751875

  length of vectors
     3.325000048  3.325000048  3.325000048     0.300751875  0.300751875  0.300751875



 old parameters found on file WAVECAR:
  energy-cutoff  :      250.00
  volume of cell :       36.76
      direct lattice vectors                 reciprocal lattice vectors
     3.325000048  0.000000000  0.000000000     0.300751875  0.000000000  0.000000000
     0.000000000  3.325000048  0.000000000     0.000000000  0.300751875  0.000000000
     0.000000000  0.000000000  3.325000048     0.000000000  0.000000000  0.300751875

  length of vectors


 k-points in units of 2pi/SCALE and weight: Gamma-point only                        
   0.00000000  0.00000000  0.00000000       1.000

 k-points in reciprocal lattice and weights: Gamma-point only                        
   0.00000000  0.00000000  0.00000000       1.000

 position of ions in fractional coordinates (direct lattice) 
   0.89999998  0.50000000  0.50000000
   0.09999999  0.50000000  0.50000000
   0.50000000  0.50000000  0.50000000

 position of ions in cartesian coordinates  (Angst):
   2.99249996  1.66250002  1.66250002
   0.33249999  1.66250002  1.66250002
   1.66250002  1.66250002  1.66250002



--------------------------------------------------------------------------------------------------------


 use serial FFT for orbitals x direction half grid
 k-point   1 :   0.0000 0.0000 0.0000  plane waves:     171

 maximum and minimum number of plane-waves per node :       171      171

 maximum number of plane-waves:       171
 maximum index in each direction: 
   IXMAX=    4   IYMAX=    4   IZMAX=    4
   IXMIN=    0   IYMIN=   -4   IZMIN=   -4


 serial   3D FFT for wavefunctions
 parallel 3D FFT for charge:
    minimum data exchange during FFTs selected (reduces bandwidth)


 total amount of memory used by VASP MPI-rank0    32276. kBytes
=======================================================================

   base      :      30000. kBytes
   nonl-proj :         43. kBytes
   fftplans  :        800. kBytes
   grid      :       1404. kBytes
   one-center:         12. kBytes
   wavefun   :         17. kBytes

     INWAV:  cpu time    0.0001: real time    0.0002
 Broyden mixing: mesh for mixing (old mesh)
   NGX =  9   NGY =  9   NGZ =  9
  (NGX  = 28   NGY  = 28   NGZ  = 28)
  gives a total of    729 points

 charge density for first step will be calculated from the start-wavefunctions


--------------------------------------------------------------------------------------------------------


 Maximum index for augmentation-charges         2517 (set IRDMAX)


--------------------------------------------------------------------------------------------------------


 initial charge from wavefunction
 First call to EWALD:  gamma=   0.533
 Maximum number of real-space cells 3x 3x 3
 Maximum number of reciprocal cells 3x 3x 3

    FEWALD:  cpu time    0.0009: real time    0.0009


--------------------------------------- Iteration      1(   1)  ---------------------------------------


    POTLOK:  cpu time    0.0167: real time    0.5387
    SETDIJ:  cpu time    0.0051: real time    0.0051
     EDDAV:  cpu time    0.0040: real time    0.0040
       DOS:  cpu time    0.0001: real time    0.0002
    CHARGE:  cpu time    0.0019: real time    0.0019
    MIXING:  cpu time    0.0005: real time    0.0005
    --------------------------------------------
      LOOP:  cpu time    0.0284: real time    0.5505

 eigenvalue-minimisations  :    12
 total energy-change (2. order) :-0.5637643E+01  (-0.7446867E+01)
 number of electron       4.0000055 magnetization 
 augmentation part        0.0111674 magnetization 

 Broyden mixing:
  rms(total) = 0.11947E+01    rms(broyden)= 0.11938E+01
  rms(prec ) = 0.30698E+01
  weight for this iteration     100.00

 Free energy of the ion-electron system (eV)
  ---------------------------------------------------
  alpha Z        PSCENC =         2.73421077
  Ewald energy   TEWEN  =       -25.69146594
  -Hartree energ DENC   =       -22.57212003
  -exchange      EXHF   =         0.00000000
  -V(xc)+E(xc)   XCENC  =         9.32653071
  PAW double counting   =       136.29891958     -135.84974228
  entropy T*S    EENTRO =        -0.00008723
  eigenvalues    EBANDS =       -22.20941858
  atomic energy  EATOM  =        52.32552977
  Solvation  Ediel_sol  =         0.00000000
  ---------------------------------------------------
  free energy    TOTEN  =        -5.63764323 eV

  energy without entropy =       -5.63755600  energy(sigma->0) =       -5.63759962


--------------------------------------------------------------------------------------------------------




--------------------------------------- Iteration      1(   2)  ---------------------------------------


    POTLOK:  cpu time    0.0165: real time    0.0166
    SETDIJ:  cpu time    0.0051: real time    0.0051
     EDDAV:  cpu time    0.0035: real time    0.0035
       DOS:  cpu time    0.0001: real time    0.0002
    CHARGE:  cpu time    0.0018: real time    0.0018
    MIXING:  cpu time    0.0006: real time    0.0006
    --------------------------------------------
      LOOP:  cpu time    0.0276: real time    0.0278

 eigenvalue-minimisations  :    12
 total energy-change (2. order) : 0.1679840E+01  (-0.1903413E+00)
 number of electron       4.0000058 magnetization 
 augmentation part        0.0081264 magnetization 

 Broyden mixing:
  rms(total) = 0.72695E+00    rms(broyden)= 0.72678E+00
  rms(prec ) = 0.18588E+01
  weight for this iteration     100.00

 eigenvalues of (default mixing * dielectric matrix)
  average eigenvalue GAMMA=   2.5097
  2.5097

 Free energy of the ion-electron system (eV)
  ---------------------------------------------------
  alpha Z        PSCENC =         2.73421077
  Ewald energy   TEWEN  =       -25.69146594
  -Hartree energ DENC   =       -18.16600978
  -exchange      EXHF   =         0.00000000
  -V(xc)+E(xc)   XCENC  =         8.76041444
  PAW double counting   =        86.88887174      -86.37462921
  entropy T*S    EENTRO =        -0.03263953
  eigenvalues    EBANDS =       -24.40208564
  atomic energy  EATOM  =        52.32552977
  Solvation  Ediel_sol  =         0.00000000
  ---------------------------------------------------
  free energy    TOTEN  =        -3.95780339 eV

  energy without entropy =       -3.92516386  energy(sigma->0) =       -3.94148362


--------------------------------------------------------------------------------------------------------




--------------------------------------- Iteration      1(   3)  ---------------------------------------


    POTLOK:  cpu time    0.0166: real time    0.0168
    SETDIJ:  cpu time    0.0052: real time    0.0052
     EDDAV:  cpu time    0.0035: real time    0.0036
       DOS:  cpu time    0.0001: real time    0.0001
    CHARGE:  cpu time    0.0017: real time    0.0017
    MIXING:  cpu time    0.0006: real time    0.0006
    --------------------------------------------
      LOOP:  cpu time    0.0277: real time    0.0279

 eigenvalue-minimisations  :    12
 total energy-change (2. order) :-0.1133778E+00  (-0.1538217E+01)
 number of electron       4.0000049 magnetization 
 augmentation part        0.0551160 magnetization 

 Broyden mixing:
  rms(total) = 0.80664E+00    rms(broyden)= 0.80635E+00
  rms(prec ) = 0.22857E+01
  weight for this iteration     100.00

 eigenvalues of (default mixing * dielectric matrix)
  average eigenvalue GAMMA=   1.1583
  1.9136  0.4030

 Free energy of the ion-electron system (eV)
  ---------------------------------------------------
  alpha Z        PSCENC =         2.73421077
  Ewald energy   TEWEN  =       -25.69146594
  -Hartree energ DENC   =       -16.77401508
  -exchange      EXHF   =         0.00000000
  -V(xc)+E(xc)   XCENC  =         8.82285096
  PAW double counting   =        57.87121713      -57.25459212
  entropy T*S    EENTRO =        -0.01302459
  eigenvalues    EBANDS =       -26.09189208
  atomic energy  EATOM  =        52.32552977
  Solvation  Ediel_sol  =         0.00000000
  ---------------------------------------------------
  free energy    TOTEN  =        -4.07118118 eV

  energy without entropy =       -4.05815659  energy(sigma->0) =       -4.06466888


--------------------------------------------------------------------------------------------------------




--------------------------------------- Iteration      1(   4)  ---------------------------------------


    POTLOK:  cpu time    0.0165: real time    0.2049
    SETDIJ:  cpu time    0.0054: real time    0.0054
     EDDAV:  cpu time    0.0035: real time    0.0035
       DOS:  cpu time    0.0001: real time    0.0033
    CHARGE:  cpu time    0.0018: real time    0.0018
    MIXING:  cpu time    0.0006: real time    0.0006
    --------------------------------------------
      LOOP:  cpu time    0.0279: real time    0.2196

 eigenvalue-minimisations  :    12
 total energy-change (2. order) : 0.4887355E+00  (-0.1532788E-01)
 number of electron       4.0000050 magnetization 
 augmentation part        0.0519602 magnetization 

 Broyden mixing:
  rms(total) = 0.58273E+00    rms(broyden)= 0.58273E+00
  rms(prec ) = 0.16984E+01
  weight for this iteration     100.00

 eigenvalues of (default mixing * dielectric matrix)
  average eigenvalue GAMMA=   1.2969
  1.9998  0.9455  0.9455

 Free energy of the ion-electron system (eV)
  ---------------------------------------------------
  alpha Z        PSCENC =         2.73421077
  Ewald energy   TEWEN  =       -25.69146594
  -Hartree energ DENC   =       -16.99800429
  -exchange      EXHF   =         0.00000000
  -V(xc)+E(xc)   XCENC  =         8.75478220
  PAW double counting   =        61.99254566      -61.42028545
  entropy T*S    EENTRO =        -0.08069799
  eigenvalues    EBANDS =       -25.19906042
  atomic energy  EATOM  =        52.32552977
  Solvation  Ediel_sol  =         0.00000000
  ---------------------------------------------------
  free energy    TOTEN  =        -3.58244568 eV

  energy without entropy =       -3.50174770  energy(sigma->0) =       -3.54209669


--------------------------------------------------------------------------------------------------------




--------------------------------------- Iteration      1(   5)  ---------------------------------------


    POTLOK:  cpu time    0.0170: real time    0.0301
    SETDIJ:  cpu time    0.0053: real time    0.0053
     EDDAV:  cpu time    0.0038: real time    0.0038
       DOS:  cpu time    0.0001: real time    0.0001
    CHARGE:  cpu time    0.0019: real time    0.0019
    MIXING:  cpu time    0.0007: real time    0.0007
    --------------------------------------------
      LOOP:  cpu time    0.0288: real time    0.0419

 eigenvalue-minimisations  :    12
 total energy-change (2. order) : 0.2098139E+00  (-0.4902907E-02)
 number of electron       4.0000050 magnetization 
 augmentation part        0.0442822 magnetization 

 Broyden mixing:
  rms(total) = 0.41718E+00    rms(broyden)= 0.41718E+00
  rms(prec ) = 0.12041E+01
  weight for this iteration     100.00

 eigenvalues of (default mixing * dielectric matrix)
  average eigenvalue GAMMA=   1.2680
  2.0141  1.0542  1.0542  0.9497

 Free energy of the ion-electron system (eV)
  ---------------------------------------------------
  alpha Z        PSCENC =         2.73421077
  Ewald energy   TEWEN  =       -25.69146594
  -Hartree energ DENC   =       -17.74395546
  -exchange      EXHF   =         0.00000000
  -V(xc)+E(xc)   XCENC  =         8.80355352
  PAW double counting   =        65.45483733      -64.90301755
  entropy T*S    EENTRO =        -0.15666802
  eigenvalues    EBANDS =       -24.19565618
  atomic energy  EATOM  =        52.32552977
  Solvation  Ediel_sol  =         0.00000000
  ---------------------------------------------------
  free energy    TOTEN  =        -3.37263176 eV

  energy without entropy =       -3.21596374  energy(sigma->0) =       -3.29429775


--------------------------------------------------------------------------------------------------------




--------------------------------------- Iteration      1(   6)  ---------------------------------------


    POTLOK:  cpu time    0.0169: real time    0.0170
    SETDIJ:  cpu time    0.0054: real time    0.0055
     EDDAV:  cpu time    0.0038: real time    0.0038
       DOS:  cpu time    0.0001: real time    0.0001
    CHARGE:  cpu time    0.0018: real time    0.0018
    MIXING:  cpu time    0.0007: real time    0.0007
    --------------------------------------------
      LOOP:  cpu time    0.0288: real time    0.0289

 eigenvalue-minimisations  :    12
 total energy-change (2. order) : 0.1274208E+00  (-0.2028146E+00)
 number of electron       4.0000053 magnetization 
 augmentation part        0.0163464 magnetization 

 Broyden mixing:
  rms(total) = 0.16582E+00    rms(broyden)= 0.16542E+00
  rms(prec ) = 0.48467E+00
  weight for this iteration     100.00

 eigenvalues of (default mixing * dielectric matrix)
  average eigenvalue GAMMA=   1.1122
  2.1026  0.9601  0.9601  0.9207  0.6173

 Free energy of the ion-electron system (eV)
  ---------------------------------------------------
  alpha Z        PSCENC =         2.73421077
  Ewald energy   TEWEN  =       -25.69146594
  -Hartree energ DENC   =       -19.17870414
  -exchange      EXHF   =         0.00000000
  -V(xc)+E(xc)   XCENC  =         8.90383370
  PAW double counting   =        75.56702999      -75.05773069
  entropy T*S    EENTRO =        -0.19623940
  eigenvalues    EBANDS =       -22.65167500
  atomic energy  EATOM  =        52.32552977
  Solvation  Ediel_sol  =         0.00000000
  ---------------------------------------------------
  free energy    TOTEN  =        -3.24521094 eV

  energy without entropy =       -3.04897155  energy(sigma->0) =       -3.14709124


--------------------------------------------------------------------------------------------------------




--------------------------------------- Iteration      1(   7)  ---------------------------------------


    POTLOK:  cpu time    0.0170: real time    0.0171
    SETDIJ:  cpu time    0.0053: real time    0.0053
     EDDAV:  cpu time    0.0036: real time    0.0036
       DOS:  cpu time    0.0001: real time    0.0001
    CHARGE:  cpu time    0.0017: real time    0.0017
    MIXING:  cpu time    0.0006: real time    0.0006
    --------------------------------------------
      LOOP:  cpu time    0.0283: real time    0.0284

 eigenvalue-minimisations  :    12
 total energy-change (2. order) : 0.1009972E-01  (-0.3654071E-03)
 number of electron       4.0000052 magnetization 
 augmentation part        0.0182802 magnetization 

 Broyden mixing:
  rms(total) = 0.11525E+00    rms(broyden)= 0.11524E+00
  rms(prec ) = 0.34251E+00
  weight for this iteration     100.00

 eigenvalues of (default mixing * dielectric matrix)
  average eigenvalue GAMMA=   1.4182
  2.2770  2.2770  1.0195  1.0195  1.0931  0.8233

 Free energy of the ion-electron system (eV)
  ---------------------------------------------------
  alpha Z        PSCENC =         2.73421077
  Ewald energy   TEWEN  =       -25.69146594
  -Hartree energ DENC   =       -19.09499568
  -exchange      EXHF   =         0.00000000
  -V(xc)+E(xc)   XCENC  =         8.89937515


--------------------------------------- Iteration      1(   1)  ---------------------------------------


    POTLOK:  cpu time    0.0166: real time    0.4043
    SETDIJ:  cpu time    0.0053: real time    0.0053
     EDDAV:  cpu time    0.0041: real time    0.0042
       DOS:  cpu time    0.0001: real time    0.0002
    CHARGE:  cpu time    0.0021: real time    0.0021
    MIXING:  cpu time    0.0005: real time    0.0005
    --------------------------------------------
      LOOP:  cpu time    0.0288: real time    0.4165

 eigenvalue-minimisations  :    12
 total energy-change (2. order) :-0.5637643E+01  (-0.7446867E+01)
 number of electron       4.0000055 magnetization 
 augmentation part        0.0111674 magnetization 

 Broyden mixing:
  rms(total) = 0.11947E+01    rms(broyden)= 0.11938E+01
  rms(prec ) = 0.30698E+01
  weight for this iteration     100.00

 Free energy of the ion-electron system (eV)
  ---------------------------------------------------
  alpha Z        PSCENC =         2.73421077
  Ewald energy   TEWEN  =       -25.69146594
  -Hartree energ DENC   =       -22.57212003
  -exchange      EXHF   =         0.00000000
  -V(xc)+E(xc)   XCENC  =         9.32653071
  PAW double counting   =       136.29891958     -135.84974228
  entropy T*S    EENTRO =        -0.00008723
  eigenvalues    EBANDS =       -22.20941858
  atomic energy  EATOM  =        52.32552977
  Solvation  Ediel_sol  =         0.00000000
  ---------------------------------------------------
  free energy    TOTEN  =        -5.63764323 eV

  energy without entropy =       -5.63755600  energy(sigma->0) =       -5.63759962


--------------------------------------------------------------------------------------------------------




--------------------------------------- Iteration      1(   2)  ---------------------------------------


    POTLOK:  cpu time    0.0163: real time    0.0165
    SETDIJ:  cpu time    0.0052: real time    0.0053
     EDDAV:  cpu time    0.0038: real time    0.0038
       DOS:  cpu time    0.0001: real time    0.0002
    CHARGE:  cpu time    0.0019: real time    0.0019
    MIXING:  cpu time    0.0006: real time    0.0006
    --------------------------------------------
      LOOP:  cpu time    0.0279: real time    0.0282

 eigenvalue-minimisations  :    12
 total energy-change (2. order) : 0.1679840E+01  (-0.1903413E+00)
 number of electron       4.0000058 magnetization 
 augmentation part        0.0081264 magnetization 

 Broyden mixing:
  rms(total) = 0.72695E+00    rms(broyden)= 0.72678E+00
  rms(prec ) = 0.18588E+01
  weight for this iteration     100.00

 eigenvalues of (default mixing * dielectric matrix)
  average eigenvalue GAMMA=   2.5097
  2.5097

 Free energy of the ion-electron system (eV)
  ---------------------------------------------------
  alpha Z        PSCENC =         2.73421077
  Ewald energy   TEWEN  =       -25.69146594
  -Hartree energ DENC   =       -18.16600978
  -exchange      EXHF   =         0.00000000
  -V(xc)+E(xc)   XCENC  =         8.76041444
  PAW double counting   =        86.88887174      -86.37462921
  entropy T*S    EENTRO =        -0.03263953
  eigenvalues    EBANDS =       -24.40208564
  atomic energy  EATOM  =        52.32552977
  Solvation  Ediel_sol  =         0.00000000
  ---------------------------------------------------
  free energy    TOTEN  =        -3.95780339 eV

  energy without entropy =       -3.92516386  energy(sigma->0) =       -3.94148362


--------------------------------------------------------------------------------------------------------




--------------------------------------- Iteration      1(   3)  ---------------------------------------


    POTLOK:  cpu time    0.0159: real time    0.0160
    SETDIJ:  cpu time    0.0053: real time    0.0054
     EDDAV:  cpu time    0.0039: real time    0.0040
       DOS:  cpu time    0.0001: real time    0.0002
    CHARGE:  cpu time    0.0019: real time    0.0019
    MIXING:  cpu time    0.0006: real time    0.0006
    --------------------------------------------
      LOOP:  cpu time    0.0278: real time    0.0281

 eigenvalue-minimisations  :    12
 total energy-change (2. order) :-0.1133778E+00  (-0.1538217E+01)
 number of electron       4.0000049 magnetization 
 augmentation part        0.0551160 magnetization 

 Broyden mixing:
  rms(total) = 0.80664E+00    rms(broyden)= 0.80635E+00
  rms(prec ) = 0.22857E+01
  weight for this iteration     100.00

 eigenvalues of (default mixing * dielectric matrix)
  average eigenvalue GAMMA=   1.1583
  1.9136  0.4030

 Free energy of the ion-electron system (eV)
  ---------------------------------------------------
  alpha Z        PSCENC =         2.73421077
  Ewald energy   TEWEN  =       -25.69146594
  -Hartree energ DENC   =       -16.77401508
  -exchange      EXHF   =         0.00000000
  -V(xc)+E(xc)   XCENC  =         8.82285096
  PAW double counting   =        57.87121713      -57.25459212
  entropy T*S    EENTRO =        -0.01302459
  eigenvalues    EBANDS =       -26.09189208
  atomic energy  EATOM  =        52.32552977
  Solvation  Ediel_sol  =         0.00000000
  ---------------------------------------------------
  free energy    TOTEN  =        -4.07118118 eV

  energy without entropy =       -4.05815659  energy(sigma->0) =       -4.06466888


--------------------------------------------------------------------------------------------------------




--------------------------------------- Iteration      1(   4)  ---------------------------------------


    POTLOK:  cpu time    0.0168: real time    0.0169
    SETDIJ:  cpu time    0.0053: real time    0.0054
     EDDAV:  cpu time    0.0038: real time    0.0039
       DOS:  cpu time    0.0001: real time    0.0002
    CHARGE:  cpu time    0.0019: real time    0.0019
    MIXING:  cpu time    0.0006: real time    0.0006
    --------------------------------------------
      LOOP:  cpu time    0.0286: real time    0.0289

 eigenvalue-minimisations  :    12
 total energy-change (2. order) : 0.4887355E+00  (-0.1532788E-01)
 number of electron       4.0000050 magnetization 
 augmentation part        0.0519602 magnetization 

 Broyden mixing:
  rms(total) = 0.58273E+00    rms(broyden)= 0.58273E+00
  rms(prec ) = 0.16984E+01
  weight for this iteration     100.00

 eigenvalues of (default mixing * dielectric matrix)
  average eigenvalue GAMMA=   1.2969
  1.9998  0.9455  0.9455

 Free energy of the ion-electron system (eV)
  ---------------------------------------------------
  alpha Z        PSCENC =         2.73421077
  Ewald energy   TEWEN  =       -25.69146594
  -Hartree energ DENC   =       -16.99800429
  -exchange      EXHF   =         0.00000000
  -V(xc)+E(xc)   XCENC  =         8.75478220
  PAW double counting   =        61.99254566      -61.42028545
  entropy T*S    EENTRO =        -0.08069799
  eigenvalues    EBANDS =       -25.19906042
  atomic energy  EATOM  =        52.32552977
  Solvation  Ediel_sol  =         0.00000000
  ---------------------------------------------------
  free energy    TOTEN  =        -3.58244568 eV

  energy without entropy =       -3.50174770  energy(sigma->0) =       -3.54209669


--------------------------------------------------------------------------------------------------------




--------------------------------------- Iteration      1(   5)  ---------------------------------------


    POTLOK:  cpu time    0.0168: real time    0.0170
    SETDIJ:  cpu time    0.0056: real time    0.0056
     EDDAV:  cpu time    0.0038: real time    0.0038
       DOS:  cpu time    0.0001: real time    0.0002
    CHARGE:  cpu time    0.0018: real time    0.0018
    MIXING:  cpu time    0.0006: real time    0.0006
    --------------------------------------------
      LOOP:  cpu time    0.0287: real time    0.0291

 eigenvalue-minimisations  :    12
 total energy-change (2. order) : 0.2098139E+00  (-0.4902907E-02)
 number of electron       4.0000050 magnetization 
 augmentation part        0.0442822 magnetization 

 Broyden mixing:
  rms(total) = 0.41718E+00    rms(broyden)= 0.41718E+00
  rms(prec ) = 0.12041E+01
  weight for this iteration     100.00

 eigenvalues of (default mixing * dielectric matrix)
  average eigenvalue GAMMA=   1.2680
  2.0141  1.0542  1.0542  0.9497

 Free energy of the ion-electron system (eV)
  ---------------------------------------------------
  alpha Z        PSCENC =         2.73421077
  Ewald energy   TEWEN  =       -25.69146594
  -Hartree energ DENC   =       -17.74395546
  -exchange      EXHF   =         0.00000000
  -V(xc)+E(xc)   XCENC  =         8.80355352
  PAW double counting   =        65.45483733      -64.90301755
  entropy T*S    EENTRO =        -0.15666802
  eigenvalues    EBANDS =       -24.19565618
  atomic energy  EATOM  =        52.32552977
  Solvation  Ediel_sol  =         0.00000000
  ---------------------------------------------------
  free energy    TOTEN  =        -3.37263176 eV

  energy without entropy =       -3.21596374  energy(sigma->0) =       -3.29429775


--------------------------------------------------------------------------------------------------------




--------------------------------------- Iteration      1(   6)  ---------------------------------------


    POTLOK:  cpu time    0.0170: real time    0.0172
    SETDIJ:  cpu time    0.0052: real time    0.0053
     EDDAV:  cpu time    0.0036: real time    0.0037
       DOS:  cpu time    0.0001: real time    0.0002
    CHARGE:  cpu time    0.0017: real time    0.0017
    MIXING:  cpu time    0.0006: real time    0.0006
    --------------------------------------------
      LOOP:  cpu time    0.0284: real time    0.0287

 eigenvalue-minimisations  :    12
 total energy-change (2. order) : 0.1274208E+00  (-0.2028146E+00)
 number of electron       4.0000053 magnetization 
 augmentation part        0.0163464 magnetization 

 Broyden mixing:
  rms(total) = 0.16582E+00    rms(broyden)= 0.16542E+00
  rms(prec ) = 0.48467E+00
  weight for this iteration     100.00

 eigenvalues of (default mixing * dielectric matrix)
  average eigenvalue GAMMA=   1.1122
  2.1026  0.9601  0.9601  0.9207  0.6173

 Free energy of the ion-electron system (eV)
  ---------------------------------------------------
  alpha Z        PSCENC =         2.73421077
  Ewald energy   TEWEN  =       -25.69146594
  -Hartree energ DENC   =       -19.17870414
  -exchange      EXHF   =         0.00000000
  -V(xc)+E(xc)   XCENC  =         8.90383370
  PAW double counting   =        75.56702999      -75.05773069
  entropy T*S    EENTRO =        -0.19623940
  eigenvalues    EBANDS =       -22.65167500
  atomic energy  EATOM  =        52.32552977
  Solvation  Ediel_sol  =         0.00000000
  ---------------------------------------------------
  free energy    TOTEN  =        -3.24521094 eV

  energy without entropy =       -3.04897155  energy(sigma->0) =       -3.14709124


--------------------------------------------------------------------------------------------------------




--------------------------------------- Iteration      1(   7)  ---------------------------------------


    POTLOK:  cpu time    0.0161: real time    0.0164
    SETDIJ:  cpu time    0.0052: real time    0.0052
     EDDAV:  cpu time    0.0037: real time    0.0037
       DOS:  cpu time    0.0001: real time    0.0001
    CHARGE:  cpu time    0.0017: real time    0.0017
    MIXING:  cpu time    0.0007: real time    0.0007
    --------------------------------------------
      LOOP:  cpu time    0.0275: real time    0.0279

 eigenvalue-minimisations  :    12
 total energy-change (2. order) : 0.1009972E-01  (-0.3654071E-03)
 number of electron       4.0000052 magnetization 
 augmentation part        0.0182802 magnetization 

 Broyden mixing:
  rms(total) = 0.11525E+00    rms(broyden)= 0.11524E+00
  rms(prec ) = 0.34251E+00
  weight for this iteration     100.00

 eigenvalues of (default mixing * dielectric matrix)
  average eigenvalue GAMMA=   1.4182
  2.2770  2.2770  1.0195  1.0195  1.0931  0.8233

 Free energy of the ion-electron system (eV)
  ---------------------------------------------------
  alpha Z        PSCENC =         2.73421077
  Ewald energy   TEWEN  =       -25.69146594
  -Hartree energ DENC   =       -19.09499568
  -exchange      EXHF   =         0.00000000
  -V(xc)+E(xc)   XCENC  =         8.89937515
  PAW double counting   =        74.86255378      -74.35298765
  entropy T*S 

 POSITION                                       TOTAL-FORCE (eV/Angst)
 -----------------------------------------------------------------------------------
      2.99250      1.66250      1.66250        -3.961785     -0.000000     -0.000000
      0.33250      1.66250      1.66250         3.961785      0.000000      0.000000
      1.66250      1.66250      1.66250         0.000000     -0.000000      0.000000
 -----------------------------------------------------------------------------------
    total drift:                                0.000003     -0.000000     -0.000000


--------------------------------------------------------------------------------------------------------



  FREE ENERGIE OF THE ION-ELECTRON SYSTEM (eV)
  ---------------------------------------------------
  free  energy   TOTEN  =        -3.22435805 eV

  energy  without entropy=       -3.00092874  energy(sigma->0) =       -3.11264340



--------------------------------------------------------------------------------------------------------


    POTLOK:  cpu time    0.0231: real time    0.1899


--------------------------------------------------------------------------------------------------------




--------------------------------------------------------------------------------------------------------


    WAVPRE:  cpu time    0.0326: real time    6.0965
    FEWALD:  cpu time    0.0002: real time    0.0002
    GENKIN:  cpu time    0.0001: real time    0.0001
    ORTHCH:  cpu time    0.0001: real time    0.0001
     LOOP+:  cpu time    0.4053: real time    7.7432
    -5.63755600  energy(sigma->0) =       -5.63759962


--------------------------------------------------------------------------------------------------------




--------------------------------------- Iteration      1(   2)  ---------------------------------------


    POTLOK:  cpu time    0.0177: real time    0.0437
    SETDIJ:  cpu time    0.0055: real time    0.0056
     EDDAV:  cpu time    0.0041: real time    0.0171
       DOS:  cpu time    0.0001: real time    0.0001
    CHARGE:  cpu time    0.0019: real time    0.0019
    MIXING:  cpu time    0.0006: real time    0.0006
    --------------------------------------------
      LOOP:  cpu time    0.0299: real time    0.0690

 eigenvalue-minimisations  :    12
 total energy-change (2. order) : 0.1679840E+01  (-0.1903413E+00)
 number of electron       4.0000058 magnetization 
 augmentation part        0.0081264 magnetization 

 Broyden mixing:
  rms(total) = 0.72695E+00    rms(broyden)= 0.72678E+00
  rms(prec ) = 0.18588E+01
  weight for this iteration     100.00

 eigenvalues of (default mixing * dielectric matrix)
  average eigenvalue GAMMA=   2.5097
  2.5097

 Free energy of the ion-electron system (eV)
  ---------------------------------------------------
  alpha Z        PSCENC =         2.73421077
  Ewald energy   TEWEN  =       -25.69146594
  -Hartree energ DENC   =       -18.16600978
  -exchange      EXHF   =         0.00000000
  -V(xc)+E(xc)   XCENC  =         8.76041444
  PAW double counting   =        86.88887174      -86.37462921
  entropy T*S    EENTRO =        -0.03263953
  eigenvalues    EBANDS =       -24.40208564
  atomic energy  EATOM  =        52.32552977
  Solvation  Ediel_sol  =         0.00000000
  ---------------------------------------------------
  free energy    TOTEN  =        -3.95780339 eV

  energy without entropy =       -3.92516386  energy(sigma->0) =       -3.94148362


--------------------------------------------------------------------------------------------------------




--------------------------------------- Iteration      1(   3)  ---------------------------------------


    POTLOK:  cpu time    0.0163: real time    0.0164
    SETDIJ:  cpu time    0.0059: real time    0.0096
     EDDAV:  cpu time    0.0038: real time    0.0041
       DOS:  cpu time    0.0001: real time    0.0002
    CHARGE:  cpu time    0.0019: real time    0.0019
    MIXING:  cpu time    0.0006: real time    0.0006
    --------------------------------------------
      LOOP:  cpu time    0.0286: real time    0.0327

 eigenvalue-minimisations  :    12
 total energy-change (2. order) :-0.1133778E+00  (-0.1538217E+01)
 number of electron       4.0000049 magnetization 
 augmentation part        0.0551160 magnetization 

 Broyden mixing:
  rms(total) = 0.80664E+00    rms(broyden)= 0.80635E+00
  rms(prec ) = 0.22857E+01
  weight for this iteration     100.00

 eigenvalues of (default mixing * dielectric matrix)
  average eigenvalue GAMMA=   1.1583
  1.9136  0.4030

 Free energy of the ion-electron system (eV)
  ---------------------------------------------------
  alpha Z        PSCENC =         2.73421077
  Ewald energy   TEWEN  =       -25.69146594
  -Hartree energ DENC   =       -16.77401508
  -exchange      EXHF   =         0.00000000
  -V(xc)+E(xc)   XCENC  =         8.82285096
  PAW double counting   =        57.87121713      -57.25459212
  entropy T*S    EENTRO =        -0.01302459
  eigenvalues    EBANDS =       -26.09189208
  atomic energy  EATOM  =        52.32552977
  Solvation  Ediel_sol  =         0.00000000
  ---------------------------------------------------
  free energy    TOTEN  =        -4.07118118 eV

  energy without entropy =       -4.05815659  energy(sigma->0) =       -4.06466888


--------------------------------------------------------------------------------------------------------




--------------------------------------- Iteration      1(   4)  ---------------------------------------


    POTLOK:  cpu time    0.0160: real time    0.0168
    SETDIJ:  cpu time    0.0054: real time    0.0071
     EDDAV:  cpu time    0.0035: real time    0.0036
       DOS:  cpu time    0.0001: real time    0.0002
    CHARGE:  cpu time    0.0018: real time    0.0018
    MIXING:  cpu time    0.0006: real time    0.0006
    --------------------------------------------
      LOOP:  cpu time    0.0274: real time    0.0301

 eigenvalue-minimisations  :    12
 total energy-change (2. order) : 0.4887355E+00  (-0.1532788E-01)
 number of electron       4.0000050 magnetization 
 augmentation part        0.0519602 magnetization 

 Broyden mixing:
  rms(total) = 0.58273E+00    rms(broyden)= 0.58273E+00
  rms(prec ) = 0.16984E+01
  weight for this iteration     100.00

 eigenvalues of (default mixing * dielectric matrix)
  average eigenvalue GAMMA=   1.2969
  1.9998  0.9455  0.9455

 Free energy of the ion-electron system (eV)
  ---------------------------------------------------
  alpha Z        PSCENC =         2.73421077
  Ewald energy   TEWEN  =       -25.69146594
  -Hartree energ DENC   =       -16.99800429
  -exchange      EXHF   =         0.00000000
  -V(xc)+E(xc)   XCENC  =         8.75478220
  PAW double counting   =        61.99254566      -61.42028545
  entropy T*S    EENTRO =        -0.08069799
  eigenvalues    EBANDS =       -25.19906042
  atomic energy  EATOM  =        52.32552977
  Solvation  Ediel_sol  =         0.00000000
  ---------------------------------------------------
  free energy    TOTEN  =        -3.58244568 eV

  energy without entropy =       -3.50174770  energy(sigma->0) =       -3.54209669


--------------------------------------------------------------------------------------------------------




--------------------------------------- Iteration      1(   5)  ---------------------------------------


    POTLOK:  cpu time    0.0166: real time    0.0177
    SETDIJ:  cpu time    0.0054: real time    0.0054
     EDDAV:  cpu time    0.0037: real time    0.0037
       DOS:  cpu time    0.0001: real time    0.0002
    CHARGE:  cpu time    0.0018: real time    0.0018
    MIXING:  cpu time    0.0006: real time    0.0006
    --------------------------------------------
      LOOP:  cpu time    0.0282: real time    0.0294

 eigenvalue-minimisations  :    12
 total energy-change (2. order) : 0.2098139E+00  (-0.4902907E-02)
 number of electron       4.0000050 magnetization 
 augmentation part        0.0442822 magnetization 

 Broyden mixing:
  rms(total) = 0.41718E+00    rms(broyden)= 0.41718E+00
  rms(prec ) = 0.12041E+01
  weight for this iteration     100.00

 eigenvalues of (default mixing * dielectric matrix)
  average eigenvalue GAMMA=   1.2680
  2.0141  1.0542  1.0542  0.9497

 Free energy of the ion-electron system (eV)
  ---------------------------------------------------
  alpha Z        PSCENC =         2.73421077
  Ewald energy   TEWEN  =       -25.69146594
  -Hartree energ DENC   =       -17.74395546
  -exchange      EXHF   =         0.00000000
  -V(xc)+E(xc)   XCENC  =         8.80355352
  PAW double counting   =        65.45483733      -64.90301755
  entropy T*S    EENTRO =        -0.15666802
  eigenvalues    EBANDS =       -24.19565618
  atomic energy  EATOM  =        52.32552977
  Solvation  Ediel_sol  =         0.00000000
  ---------------------------------------------------
  free energy    TOTEN  =        -3.37263176 eV

  energy without entropy =       -3.21596374  energy(sigma->0) =       -3.29429775


--------------------------------------------------------------------------------------------------------




--------------------------------------- Iteration      1(   6)  ---------------------------------------


    POTLOK:  cpu time    0.0168: real time    0.0170
    SETDIJ:  cpu time    0.0058: real time    0.0058
     EDDAV:  cpu time    0.0040: real time    0.0040
       DOS:  cpu time    0.0001: real time    0.0002
    CHARGE:  cpu time    0.0020: real time    0.0020
    MIXING:  cpu time    0.0007: real time    0.0007
    --------------------------------------------
      LOOP:  cpu time    0.0294: real time    0.0297

 eigenvalue-minimisations  :    12
 total energy-change (2. order) : 0.1274208E+00  (-0.2028146E+00)
 number of electron       4.0000053 magnetization 
 augmentation part        0.0163464 magnetization 

 Broyden mixing:
  rms(total) = 0.16582E+00    rms(broyden)= 0.16542E+00
  rms(prec ) = 0.48467E+00
  weight for this iteration     100.00

 eigenvalues of (default mixing * dielectric matrix)
  average eigenvalue GAMMA=   1.1122
  2.1026  0.9601  0.9601  0.9207  0.6173

 Free energy of the ion-electron system (eV)
  ---------------------------------------------------
  alpha Z        PSCENC =         2.73421077
  Ewald energy   TEWEN  =       -25.69146594
  -Hartree energ DENC   =       -19.17870414
  -exchange      EXHF   =         0.00000000
  -V(xc)+E(xc)   XCENC  =         8.90383370
  PAW double counting   =        75.56702999      -75.05773069
  entropy T*S    EENTRO =        -0.19623940
  eigenvalues    EBANDS =       -22.65167500
  atomic energy  EATOM  =        52.32552977
  Solvation  Ediel_sol  =         0.00000000
  ---------------------------------------------------
  free energy    TOTEN  =        -3.24521094 eV

  energy without entropy =       -3.04897155  energy(sigma->0) =       -3.14709124


--------------------------------------------------------------------------------------------------------




--------------------------------------- Iteration      1(   7)  ---------------------------------------


    POTLOK:  cpu time    0.0174: real time    0.0176
    SETDIJ:  cpu time    0.0055: real time    0.0056
     EDDAV:  cpu time    0.0039: real time    0.0039
       DOS:  cpu time    0.0001: real time    0.0002
    CHARGE:  cpu time    0.0019: real time    0.0019
    MIXING:  cpu time    0.0007: real time    0.0007
    --------------------------------------------
      LOOP:  cpu time    0.0296: real time    0.0299

 eigenvalue-minimisations  :    12
 total energy-change (2. order) : 0.1009972E-01  (-0.3654071E-03)
 number of electron       4.0000052 magnetization 
 augmentation part        0.0182802 magnetization 

 Broyden mixing:
  rms(total) = 0.11525E+00    rms(broyden)= 0.11524E+00
  rms(prec ) = 0.34251E+00
  weight for this iteration     100.00

 eigenvalues of (default mixing * dielectric matrix)
  average eigenvalue GAMMA=   1.4182
  2.2770  2.2770  1.0195  1.0195  1.0931  0.8233

 Free energy of the ion-electron system (eV)
  ---------------------------------------------------
  alpha Z        PSCENC =         2.73421077
  Ewald energy   TEWEN  =       -25.69146594
  -Hartree energ DENC   =       -19.09499568
  -exchange      EXHF   =         0.00000000
  -V(xc)+E(xc)   XCENC  =         8.89937515


 POSITION                                       TOTAL-FORCE (eV/Angst)
 -----------------------------------------------------------------------------------
      2.99250      1.66250      1.66250        -3.961785     -0.000000     -0.000000
      0.33250      1.66250      1.66250         3.961785      0.000000      0.000000
      1.66250      1.66250      1.66250         0.000000     -0.000000      0.000000
 -----------------------------------------------------------------------------------
    total drift:                                0.000003     -0.000000     -0.000000


--------------------------------------------------------------------------------------------------------



  FREE ENERGIE OF THE ION-ELECTRON SYSTEM (eV)
  ---------------------------------------------------
  free  energy   TOTEN  =        -3.22435805 eV

  energy  without entropy=       -3.00092874  energy(sigma->0) =       -3.11264340



--------------------------------------------------------------------------------------------------------


    POTLOK:  cpu time    0.0211: real time    0.0211


--------------------------------------------------------------------------------------------------------




--------------------------------------------------------------------------------------------------------


    WAVPRE:  cpu time    0.0318: real time    5.4888
    FEWALD:  cpu time    0.0002: real time    0.0002
    GENKIN:  cpu time    0.0000: real time    0.0000
    ORTHCH:  cpu time    0.0001: real time    0.0001
     LOOP+:  cpu time    0.4048: real time    6.7135
of the ion-electron system (eV)
  ---------------------------------------------------
  alpha Z        PSCENC =         2.73421077
  Ewald energy   TEWEN  =       -25.69146594
  -Hartree energ DENC   =       -18.54023613
  -exchange      EXHF   =         0.00000000
  -V(xc)+E(xc)   XCENC  =         8.85753365
  PAW double counting   =        72.40077446      -71.88560383
  entropy T*S    EENTRO =        -0.22567364
  eigenvalues    EBANDS =       -23.20249826
  atomic energy  EATOM  =        52.32552977
  Solvation  Ediel_sol  =         0.00000000
  ---------------------------------------------------
  free energy    TOTEN  =        -3.22742915 eV

  energy without entropy =       -3.00175551  energy(sigma->0) =       -3.11459233


--------------------------------------------------------------------------------------------------------




--------------------------------------- Iteration      1(   9)  ---------------------------------------


    POTLOK:  cpu time    0.0159: real time    0.0161
    SETDIJ:  cpu time    0.0052: real time    0.0052
     EDDAV:  cpu time    0.0037: real time    0.0037
       DOS:  cpu time    0.0001: real time    0.0002
    CHARGE:  cpu time    0.0017: real time    0.0017
    MIXING:  cpu time    0.0007: real time    0.0007
    --------------------------------------------
      LOOP:  cpu time    0.0273: real time    0.0276

 eigenvalue-minimisations  :    12
 total energy-change (2. order) : 0.2256466E-02  (-0.9044695E-04)
 number of electron       4.0000052 magnetization 
 augmentation part        0.0254754 magnetization 

 Broyden mixing:
  rms(total) = 0.30838E-01    rms(broyden)= 0.30838E-01
  rms(prec ) = 0.93233E-01
  weight for this iteration     100.00

 eigenvalues of (default mixing * dielectric matrix)
  average eigenvalue GAMMA=   1.3601
  2.6753  2.0981  0.9852  0.9852  1.1736  1.1736  0.8948  0.8948

 Free energy of the ion-electron system (eV)
  ---------------------------------------------------
  alpha Z        PSCENC =         2.73421077
  Ewald energy   TEWEN  =       -25.69146594
  -Hartree energ DENC   =       -18.65967098
  -exchange      EXHF   =         0.00000000
  -V(xc)+E(xc)   XCENC  =         8.86791071
  PAW double counting   =        73.07303911      -72.56029617
  entropy T*S    EENTRO =        -0.22504966
  eigenvalues    EBANDS =       -23.08938029
  atomic energy  EATOM  =        52.32552977
  Solvation  Ediel_sol  =         0.00000000
  ---------------------------------------------------
  free energy    TOTEN  =        -3.22517268 eV

  energy without entropy =       -3.00012302  energy(sigma->0) =       -3.11264785


--------------------------------------------------------------------------------------------------------




--------------------------------------- Iteration      1(  10)  ---------------------------------------


    POTLOK:  cpu time    0.0161: real time    0.0162
    SETDIJ:  cpu time    0.0052: real time    0.0052
     EDDAV:  cpu time    0.0035: real time    0.0035
       DOS:  cpu time    0.0001: real time    0.0002
    CHARGE:  cpu time    0.0017: real time    0.0017
    MIXING:  cpu time    0.0007: real time    0.0007
    --------------------------------------------
      LOOP:  cpu time    0.0273: real time    0.0275

 eigenvalue-minimisations  :    12
 total energy-change (2. order) : 0.8139482E-03  (-0.9380619E-04)
 number of electron       4.0000052 magnetization 
 augmentation part        0.0236244 magnetization 

 Broyden mixing:
  rms(total) = 0.47126E-02    rms(broyden)= 0.46628E-02
  rms(prec ) = 0.13236E-01
  weight for this iteration     100.00

 eigenvalues of (default mixing * dielectric matrix)
  average eigenvalue GAMMA=   1.3594
  2.8229  2.1479  0.9851  0.9851  1.3052  1.3052  0.9561  0.9196  0.8075

 Free energy of the ion-electron system (eV)
  ---------------------------------------------------
  alpha Z        PSCENC =         2.73421077
  Ewald energy   TEWEN  =       -25.69146594
  -Hartree energ DENC   =       -18.78172956
  -exchange      EXHF   =         0.00000000
  -V(xc)+E(xc)   XCENC  =         8.87839303
  PAW double counting   =        73.73394076      -73.22363681
  entropy T*S    EENTRO =        -0.22289431
  eigenvalues    EBANDS =       -22.97670644
  atomic energy  EATOM  =        52.32552977
  Solvation  Ediel_sol  =         0.00000000
  ---------------------------------------------------
  free energy    TOTEN  =        -3.22435873 eV

  energy without entropy =       -3.00146443  energy(sigma->0) =       -3.11291158


--------------------------------------------------------------------------------------------------------




--------------------------------------- Iteration      1(  11)  ---------------------------------------


    POTLOK:  cpu time    0.0159: real time    0.0161
    SETDIJ:  cpu time    0.0051: real time    0.0051
     EDDAV:  cpu time    0.0023: real time    0.0023
       DOS:  cpu time    0.0001: real time    0.0002
    --------------------------------------------
      LOOP:  cpu time    0.0235: real time    0.0237

 eigenvalue-minimisations  :     6
 total energy-change (2. order) : 0.6832778E-06  (-0.4741993E-05)
 number of electron       4.0000052 magnetization 
 augmentation part        0.0236244 magnetization 

 Free energy of the ion-electron system (eV)
  ---------------------------------------------------
  alpha Z        PSCENC =         2.73421077
  Ewald energy   TEWEN  =       -25.69146594
  -Hartree energ DENC   =       -18.76135077
  -exchange      EXHF   =         0.00000000
  -V(xc)+E(xc)   XCENC  =         8.87688941
  PAW double counting   =        73.60131499      -73.09068201
  entropy T*S    EENTRO =        -0.22342931
  eigenvalues    EBANDS =       -22.99537496
  atomic energy  EATOM  =        52.32552977
  Solvation  Ediel_sol  =         0.00000000
  ---------------------------------------------------
  free energy    TOTEN  =        -3.22435805 eV

  energy without entropy =       -3.00092874  energy(sigma->0) =       -3.11264340


--------------------------------------------------------------------------------------------------------




 average (electrostatic) potential at core
  the test charge radii are     0.5201  0.9943
  (the norm of the test charge is              1.0001)
       1 -41.0610       2 -41.0610       3 -31.9444



 E-fermi :  -0.0059     XC(G=0):  -6.9861     alpha+bet : -4.6429

 Fermi energy:        -0.0058712261

 k-point     1 :       0.0000    0.0000    0.0000
  band No.  band energies     occupation 
      1     -11.4896      2.00000
      2      -0.0259      1.11249
      3       0.0141      0.88751
      4       3.9245      0.00000
      5       3.9245      0.00000
      6       8.8458      0.00000


--------------------------------------------------------------------------------------------------------


 soft charge-density along one line, spin component           1
         0         1         2         3         4         5         6         7         8         9
 total charge-density along one line

 pseudopotential strength for first ion, spin component:           1
 -2.330  -4.014  -0.000  -0.000  -0.001
 -4.014  -6.828  -0.000  -0.000  -0.005
 -0.000  -0.000  -0.337   0.000   0.000
 -0.000  -0.000   0.000  -0.337   0.000
 -0.001  -0.005   0.000   0.000  -0.326
 total augmentation occupancy for first ion, spin component:           1
  4.385  -0.876   0.000   0.000   0.366
 -0.876   0.218   0.000   0.000  -0.074
  0.000   0.000   0.000  -0.000   0.000
  0.000   0.000  -0.000   0.000   0.000
  0.366  -0.074   0.000   0.000   0.120


------------------------ aborting loop because EDIFF is reached ----------------------------------------


    CHARGE:  cpu time    0.0020: real time    0.0057
    FORLOC:  cpu time    0.0015: real time    0.0017
    FORNL :  cpu time    0.0031: real time    0.0031
    STRESS:  cpu time    0.0111: real time    0.0112
    FORCOR:  cpu time    0.0164: real time    0.0165
    FORHAR:  cpu time    0.0049: real time    0.0049
    MIXING:  cpu time    0.0007: real time    0.0007
    OFIELD:  cpu time    0.0000: real time    0.0000

  FORCE on cell =-STRESS in cart. coord.  units (eV):
  Direction    XX          YY          ZZ          XY          YZ          ZX
  --------------------------------------------------------------------------------------
  Alpha Z     2.73421     2.73421     2.73421
  Ewald      43.56273   -34.62712   -34.62712     0.00000    -0.00000     0.00000
  Hartree    14.85598     1.97098     1.97098    -0.00000    -0.00000    -0.00000
  E(xc)     -10.53188   -10.94065   -10.94065    -0.00000    -0.00000     0.00000
  Local     -64.55843     9.10611     9.10611    -0.00000    -0.00000    -0.00000
  n-local    -7.36231    -4.68440    -4.68440    -0.00000    -0.00000    -0.00000
  augment     0.09533     0.14644     0.14644     0.00000     0.00000     0.00000
  Kinetic    41.62831    31.80509    31.80509     0.00000     0.00000     0.00000
  Fock        0.00000     0.00000     0.00000     0.00000     0.00000     0.00000
  -------------------------------------------------------------------------------------
  Total      20.42393    -4.48935    -4.48935     0.00000     0.00000     0.00000
  in kB     890.17414  -195.66747  -195.66747     0.00000     0.00000     0.00000
  external pressure =      166.28 kB  Pullay stress =        0.00 kB


 VOLUME and BASIS-vectors are now :
 -----------------------------------------------------------------------------
  energy-cutoff  :      250.00
  volume of cell :       36.76
      direct lattice vectors                 reciprocal lattice vectors
     3.325000048  0.000000000  0.000000000     0.300751875  0.000000000  0.000000000
     0.000000000  3.325000048  0.000000000     0.000000000  0.300751875  0.000000000
     0.000000000  0.000000000  3.325000048     0.000000000  0.000000000  0.300751875

  length of vectors
     3.325000048  3.325000048  3.325000048     0.300751875  0.300751875  0.300751875


 FORCES acting on ions
    electron-ion (+dipol)            ewald-force                    non-local-force                 convergence-correction
 -----------------------------------------------------------------------------------------------
   0.139E+02 -.145E-07 -.294E-05   -.217E+02 -.562E-17 -.128E-16   0.386E+01 -.934E-26 -.836E-26   0.581E-02 0.227E-11 0.227E-11
   -.139E+02 -.145E-07 0.292E-05   0.217E+02 -.889E-17 -.952E-17   -.386E+01 0.257E-26 -.407E-26   -.581E-02 0.227E-11 0.227E-11
   0.875E-07 -.556E-08 -.556E-08   -.331E-05 0.496E-16 0.178E-16   -.239E-22 -.620E-27 -.137E-27   0.618E-11 0.186E-11 0.186E-11
 -----------------------------------------------------------------------------------------------
   0.327E-05 -.345E-07 -.345E-07   -.354E-14 0.351E-16 -.451E-17   -.239E-22 -.739E-26 -.126E-25   0.913E-09 0.640E-11 0.640E-11


 POSITION                                       TOTAL-FORCE (eV/Angst)
 -----------------------------------------------------------------------------------
      2.99250      1.66250      1.66250        -3.961785     -0.000000     -0.000000
      0.33250      1.66250      1.66250         3.961785      0.000000      0.000000
      1.66250      1.66250      1.66250         0.000000     -0.000000      0.000000
 -----------------------------------------------------------------------------------
    total drift:                                0.000003     -0.000000     -0.000000


--------------------------------------------------------------------------------------------------------



  FREE ENERGIE OF THE ION-ELECTRON SYSTEM (eV)
  ---------------------------------------------------
  free  energy   TOTEN  =        -3.22435805 eV

  energy  without entropy=       -3.00092874  energy(sigma->0) =       -3.11264340



--------------------------------------------------------------------------------------------------------


    POTLOK:  cpu time    0.0212: real time    0.0212


--------------------------------------------------------------------------------------------------------




--------------------------------------------------------------------------------------------------------


    WAVPRE:  cpu time    0.0299: real time    3.8803
    FEWALD:  cpu time    0.0002: real time    0.0002
    GENKIN:  cpu time    0.0000: real time    0.0000
    ORTHCH:  cpu time    0.0001: real time    0.0001
     LOOP+:  cpu time    0.4052: real time    5.2671


--------------------------------------- Iteration      2(   1)  ---------------------------------------


    POTLOK:  cpu time    0.0160: real time    0.0160
    SETDIJ:  cpu time    0.0052: real time    0.0052
     EDDAV:  cpu time    0.0036: real time    0.0036
       DOS:  cpu time    0.0001: real time    0.0002
    CHARGE:  cpu time    0.0016: real time    0.0016
    MIXING:  cpu time    0.0005: real time    0.0005
    --------------------------------------------
      LOOP:  cpu time    0.0269: real time    0.0271

 eigenvalue-minimisations  :    12
 total energy-change (2. order) :-0.8488072E+01  (-0.1110519E+02)
 number of electron       3.9999955 magnetization 
 augmentation part       -0.0003497 magnetization 

 Broyden mixing:
  rms(total) = 0.60137E+00    rms(broyden)= 0.59751E+00
  rms(prec ) = 0.13577E+01
  weight for this iteration     100.00

 Free energy of the ion-electron system (eV)
  ---------------------------------------------------
  alpha Z        PSCENC =         2.39098082
  Ewald energy   TEWEN  =       -39.57638187
  -Hartree energ DENC   =       -13.48002681
  -exchange      EXHF   =         0.00000000
  -V(xc)+E(xc)   XCENC  =         8.40617667
  PAW double counting   =        73.57705657      -73.06625370
  entropy T*S    EENTRO =        -0.00000000
  eigenvalues    EBANDS =       -22.28951224
  atomic energy  EATOM  =        52.32552977
  Solvation  Ediel_sol  =         0.00000000
  ---------------------------------------------------
  free energy    TOTEN  =       -11.71243078 eV

  energy without entropy =      -11.71243078  energy(sigma->0) =      -11.71243078


--------------------------------------------------------------------------------------------------------




--------------------------------------- Iteration      2(   2)  ---------------------------------------


    POTLOK:  cpu time    0.0160: real time    0.0162
    SETDIJ:  cpu time    0.0050: real time    0.0050
     EDDAV:  cpu time    0.0035: real time    0.0035
       DOS:  cpu time    0.0001: real time    0.0001
    CHARGE:  cpu time    0.0016: real time    0.0016
    MIXING:  cpu time    0.0006: real time    0.0010
    --------------------------------------------
      LOOP:  cpu time    0.0267: real time    0.0273

 eigenvalue-minimisations  :    12
 total energy-change (2. order) : 0.9432066E+00  (-0.2121904E+00)
 number of electron       3.9999946 magnetization 
 augmentation part        0.0081766 magnetization 

 Broyden mixing:
  rms(total) = 0.30092E+00    rms(broyden)= 0.30073E+00
  rms(prec ) = 0.62313E+00
  weight for this iteration     100.00

 eigenvalues of (default mixing * dielectric matrix)
  average eigenvalue GAMMA=   1.8717
  1.8717

 Free energy of the ion-electron system (eV)
  ---------------------------------------------------
  alpha Z        PSCENC =         2.39098082
  Ewald energy   TEWEN  =       -39.57638187
  -Hartree energ DENC   =       -10.89255757
  -exchange      EXHF   =         0.00000000
  -V(xc)+E(xc)   XCENC  =         7.97809034
  PAW double counting   =        60.14694067      -59.60798351
  entropy T*S    EENTRO =        -0.00000000
  eigenvalues    EBANDS =       -23.53384279
  atomic energy  EATOM  =        52.32552977
  Solvation  Ediel_sol  =         0.00000000
  ---------------------------------------------------
  free energy    TOTEN  =       -10.76922414 eV

  energy without entropy =      -10.76922414  energy(sigma->0) =      -10.76922414


--------------------------------------------------------------------------------------------------------




--------------------------------------- Iteration      2(   3)  ---------------------------------------


    POTLOK:  cpu time    0.0158: real time    0.0159
    SETDIJ:  cpu time    0.0053: real time    0.0054
     EDDAV:  cpu time    0.0040: real time    0.0040
       DOS:  cpu time    0.0001: real time    0.0001
    CHARGE:  cpu time    0.0017: real time    0.0017
    MIXING:  cpu time    0.0006: real time    0.0006
    --------------------------------------------
      LOOP:  cpu time    0.0276: real time    0.0277

 eigenvalue-minimisations  :    12
 total energy-change (2. order) : 0.8014767E-01  (-0.8441098E-01)
 number of electron       3.9999940 magnetization 
 augmentation part        0.0148503 magnetization 

 Broyden mixing:
  rms(total) = 0.87384E-01    rms(broyden)= 0.87331E-01
  rms(prec ) = 0.19785E+00
  weight for this iteration     100.00

 eigenvalues of (default mixing * dielectric matrix)
  average eigenvalue GAMMA=   1.9700
  1.6354  2.3047

 Free energy of the ion-electron system (eV)
  ---------------------------------------------------
  alpha Z        PSCENC =         2.39098082
[...]




--------------------------------------------------------------------------------------------------------


 writing wavefunctions
     LOOP+:  cpu time    0.2595: real time    3.5625
    4ORBIT:  cpu time    0.0000: real time    0.0000

 total amount of memory used by VASP MPI-rank0    32276. kBytes
=======================================================================

   base      :      30000. kBytes
   nonl-proj :         43. kBytes
   fftplans  :        800. kBytes
   grid      :       1404. kBytes
   one-center:         12. kBytes
   wavefun   :         17. kBytes

  
  
 General timing and accounting informations for this job:
 ========================================================
  
                  Total CPU time used (sec):        1.783
                            User time (sec):        1.592
                          System time (sec):        0.190
                         Elapsed time (sec):       26.561
  
                   Maximum memory used (kb):      217236.
                   Average memory used (kb):          N/A
  
                          Minor page faults:        11105
                          Major page faults:            2
                 Voluntary context switches:         1766
-38.16842996
  -Hartree energ DENC   =       -10.60228378
  -exchange      EXHF   =         0.00000000
  -V(xc)+E(xc)   XCENC  =         7.61404379
  PAW double counting   =        31.91194206      -31.28408266
  entropy T*S    EENTRO =        -0.00000000
  eigenvalues    EBANDS =       -30.21050962
  atomic energy  EATOM  =        52.32552977
  Solvation  Ediel_sol  =         0.00000000
  ---------------------------------------------------
  free energy    TOTEN  =       -16.17693039 eV

  energy without entropy =      -16.17693039  energy(sigma->0) =      -16.17693039


--------------------------------------------------------------------------------------------------------




--------------------------------------- Iteration      5(   2)  ---------------------------------------


    POTLOK:  cpu time    0.0158: real time    0.0159
    SETDIJ:  cpu time    0.0050: real time    0.0050
     EDDAV:  cpu time    0.0034: real time    0.0034
       DOS:  cpu time    0.0001: real time    0.0002
    CHARGE:  cpu time    0.0015: real time    0.0015
    MIXING:  cpu time    0.0005: real time    0.0005
    --------------------------------------------
      LOOP:  cpu time    0.0263: real time    0.0265

 eigenvalue-minimisations  :    12
 total energy-change (2. order) : 0.9809460E+00  (-0.2595879E+00)
 number of electron       3.9999895 magnetization 
 augmentation part       -0.0340476 magnetization 

 Broyden mixing:
  rms(total) = 0.16957E+00    rms(broyden)= 0.16835E+00
  rms(prec ) = 0.43021E+00
  weight for this iteration     100.00

 eigenvalues of (default mixing * dielectric matrix)
  average eigenvalue GAMMA=   1.6342
  1.6342

 Free energy of the ion-electron system (eV)
  ---------------------------------------------------
  alpha Z        PSCENC =         2.23686002
  Ewald energy   TEWEN  =       -38.16842996
  -Hartree energ DENC   =        -9.59449477
  -exchange      EXHF   =         0.00000000
  -V(xc)+E(xc)   XCENC  =         7.29917494
  PAW double counting   =        31.11329601      -30.48469089
  entropy T*S    EENTRO =        -0.00000000
  eigenvalues    EBANDS =       -29.92322947
  atomic energy  EATOM  =        52.32552977
  Solvation  Ediel_sol  =         0.00000000
  ---------------------------------------------------
  free energy    TOTEN  =       -15.19598436 eV

  energy without entropy =      -15.19598436  energy(sigma->0) =      -15.19598436


--------------------------------------------------------------------------------------------------------




--------------------------------------- Iteration      5(   3)  ---------------------------------------


    POTLOK:  cpu time    0.0157: real time    0.0158
    SETDIJ:  cpu time    0.0055: real time    0.0055
     EDDAV:  cpu time    0.0048: real time    0.0048
       DOS:  cpu time    0.0001: real time    0.0002
    CHARGE:  cpu time    0.0016: real time    0.0016
    MIXING:  cpu time    0.0006: real time    0.0006
    --------------------------------------------
      LOOP:  cpu time    0.0282: real time    0.0285

 eigenvalue-minimisations  :    18
 total energy-change (2. order) : 0.1694841E+00  (-0.1665445E+00)
 number of electron       3.9999875 magnetization 
 augmentation part       -0.0252296 magnetization 

 Broyden mixing:
  rms(total) = 0.50900E-01    rms(broyden)= 0.50686E-01
  rms(prec ) = 0.97753E-01
  weight for this iteration     100.00

 eigenvalues of (default mixing * dielectric matrix)
  average eigenvalue GAMMA=   1.1130
  1.5612  0.6648

 Free energy of the ion-electron system (eV)
  ---------------------------------------------------
  alpha Z        PSCENC =         2.23686002
  Ewald energy   TEWEN  =       -38.16842996
  -Hartree energ DENC   =        -9.40038462
  -exchange      EXHF   =         0.00000000
  -V(xc)+E(xc)   XCENC  =         7.14216585
  PAW double counting   =        29.57530361      -28.93990761
  entropy T*S    EENTRO =        -0.00000000
  eigenvalues    EBANDS =       -29.79763737
  atomic energy  EATOM  =        52.32552977
  Solvation  Ediel_sol  =         0.00000000
  ---------------------------------------------------
  free energy    TOTEN  =       -15.02650031 eV

  energy without entropy =      -15.02650030  energy(sigma->0) =      -15.02650030


--------------------------------------------------------------------------------------------------------




--------------------------------------- Iteration      5(   4)  ---------------------------------------


    POTLOK:  cpu time    0.0156: real time    0.0157
    SETDIJ:  cpu time    0.0051: real time    0.0051
     EDDAV:  cpu time    0.0035: real time    0.0035
       DOS:  cpu time    0.0001: real time    0.0002
    CHARGE:  cpu time    0.0015: real time    0.0015
    MIXING:  cpu time    0.0006: real time    0.0006
    --------------------------------------------
      LOOP:  cpu time    0.0263: real time    0.0265

 eigenvalue-minimisations  :    12
 total energy-change (2. order) : 0.7881427E-03  (-0.3284337E-02)
 number of electron       3.9999876 magnetization 
 augmentation part       -0.0264090 magnetization 

 Broyden mixing:
  rms(total) = 0.28329E-01    rms(broyden)= 0.28320E-01
  rms(prec ) = 0.51020E-01
  weight for this iteration     100.00

 eigenvalues of (default mixing * dielectric matrix)
  average eigenvalue GAMMA=   1.5941
  2.2450  1.0916  1.4458

 Free energy of the ion-electron system (eV)
  ---------------------------------------------------
  alpha Z        PSCENC =         2.23686002
  Ewald energy   TEWEN  =       -38.16842996
  -Hartree energ DENC   =        -9.39262852
  -exchange      EXHF   =         0.00000000
  -V(xc)+E(xc)   XCENC  =         7.16101137
  PAW double counting   =        28.45857221      -27.81726947
  entropy T*S    EENTRO =        -0.00000000
  eigenvalues    EBANDS =       -29.82935759
  atomic energy  EATOM  =        52.32552977
  Solvation  Ediel_sol  =         0.00000000
  ---------------------------------------------------
  free energy    TOTEN  =       -15.02571216 eV

  energy without entropy =      -15.02571216  energy(sigma->0) =      -15.02571216


--------------------------------------------------------------------------------------------------------




--------------------------------------- Iteration      5(   5)  ---------------------------------------


    POTLOK:  cpu time    0.0156: real time    0.0157
    SETDIJ:  cpu time    0.0050: real time    0.0050
     EDDAV:  cpu time    0.0035: real time    0.0035
       DOS:  cpu time    0.0001: real time    0.0002
    CHARGE:  cpu time    0.0015: real time    0.0015
    MIXING:  cpu time    0.0006: real time    0.0006
    --------------------------------------------
      LOOP:  cpu time    0.0263: real time    0.0265

 eigenvalue-minimisations  :    12
 total energy-change (2. order) :-0.4863910E-02  (-0.8436686E-03)
 number of electron       3.9999877 magnetization 
 augmentation part       -0.0269664 magnetization 

 Broyden mixing:
  rms(total) = 0.66841E-02    rms(broyden)= 0.66746E-02
  rms(prec ) = 0.18485E-01
  weight for this iteration     100.00

 eigenvalues of (default mixing * dielectric matrix)
  average eigenvalue GAMMA=   1.5630
  2.8182  1.5072  0.9633  0.9633

 Free energy of the ion-electron system (eV)
  ---------------------------------------------------
  alpha Z        PSCENC =         2.23686002
  Ewald energy   TEWEN  =       -38.16842996
  -Hartree energ DENC   =        -9.42722993
  -exchange      EXHF   =         0.00000000
  -V(xc)+E(xc)   XCENC  =         7.18340468
  PAW double counting   =        26.11229033      -25.45675393
  entropy T*S    EENTRO =        -0.00000000
  eigenvalues    EBANDS =       -29.83624705
  atomic energy  EATOM  =        52.32552977
  Solvation  Ediel_sol  =         0.00000000
  ---------------------------------------------------
  free energy    TOTEN  =       -15.03057607 eV

  energy without entropy =      -15.03057607  energy(sigma->0) =      -15.03057607


--------------------------------------------------------------------------------------------------------




--------------------------------------- Iteration      5(   6)  ---------------------------------------


    POTLOK:  cpu time    0.0154: real time    0.0155
    SETDIJ:  cpu time    0.0050: real time    0.0050
     EDDAV:  cpu time    0.0039: real time    0.0039
       DOS:  cpu time    0.0001: real time    0.0002
    CHARGE:  cpu time    0.0017: real time    0.0017
    MIXING:  cpu time    0.0007: real time    0.0007
    --------------------------------------------
      LOOP:  cpu time    0.0267: real time    0.0269

 eigenvalue-minimisations  :    12
 total energy-change (2. order) : 0.2825935E-03  (-0.1423576E-03)
 number of electron       3.9999877 magnetization 
 augmentation part       -0.0267629 magnetization 

 Broyden mixing:
  rms(total) = 0.27606E-02    rms(broyden)= 0.27596E-02
  rms(prec ) = 0.67240E-02
  weight for this iteration     100.00

 eigenvalues of (default mixing * dielectric matrix)
  average eigenvalue GAMMA=   1.7395
  2.6396  2.6396  0.9481  1.1039  1.3661

 Free energy of the ion-electron system (eV)
  ---------------------------------------------------
  alpha Z        PSCENC =         2.23686002
  Ewald energy   TEWEN  =       -38.16842996
  -Hartree energ DENC   =        -9.44254845
  -exchange      EXHF   =         0.00000000
  -V(xc)+E(xc)   XCENC  =         7.18216298
  PAW double counting   =        26.27573258      -25.62138700
  entropy T*S    EENTRO =        -0.00000000
  eigenvalues    EBANDS =       -29.81821341
  atomic energy  EATOM  =        52.32552977
  Solvation  Ediel_sol  =         0.00000000
  ---------------------------------------------------
  free energy    TOTEN  =       -15.03029348 eV

  energy without entropy =      -15.03029348  energy(sigma->0) =      -15.03029348


--------------------------------------------------------------------------------------------------------




--------------------------------------- Iteration      5(   7)  ---------------------------------------


    POTLOK:  cpu time    0.0164: real time    0.0165
    SETDIJ:  cpu time    0.0052: real time    0.0053
     EDDAV:  cpu time    0.0038: real time    0.0038
       DOS:  cpu time    0.0001: real time    0.0002
    --------------------------------------------
      LOOP:  cpu time    0.0255: real time    0.0258

 eigenvalue-minimisations  :    12
 total energy-change (2. order) : 0.2122629E-04  (-0.2060125E-04)
 number of electron       3.9999877 magnetization 
 augmentation part       -0.0267629 magnetization 

 Free energy of the ion-electron system (eV)
  ---------------------------------------------------
  alpha Z        PSCENC =         2.23686002
  Ewald energy   TEWEN  =       -38.16842996
  -Hartree energ DENC   =        -9.46569831
  -exchange      EXHF   =         0.00000000
  -V(xc)+E(xc)   XCENC  =         7.18463537
  PAW double counting   =        26.49783138      -25.84513540
  entropy T*S    EENTRO =        -0.00000000
  eigenvalues    EBANDS =       -29.79586513
  atomic energy  EATOM  =        52.32552977
  Solvation  Ediel_sol  =         0.00000000
  ---------------------------------------------------
  free energy    TOTEN  =       -15.03027225 eV

  energy without entropy =      -15.03027225  energy(sigma->0) =      -15.03027225


--------------------------------------------------------------------------------------------------------




 average (electrostatic) potential at core
  the test charge radii are     0.5201  0.9943
  (the norm of the test charge is              0.9996)
       1 -38.5267       2 -38.5267       3 -32.9460



 E-fermi :  -5.2863     XC(G=0):  -6.7296     alpha+bet : -3.7983

 Fermi energy:        -5.2862832581

 k-point     1 :       0.0000    0.0000    0.0000
  band No.  band energies     occupation 
      1      -8.6306      2.00000
      2      -6.2673      2.00000
      3      -2.2375      0.00000
      4       5.4454      0.00000
      5       6.9905      0.00000
      6       7.4105      0.00000


--------------------------------------------------------------------------------------------------------


 soft charge-density along one line, spin component           1
         0         1         2         3         4         5         6         7         8         9
 total charge-density along one line

 pseudopotential strength for first ion, spin component:           1
 -2.316  -3.985  -0.000  -0.000   0.000
 -3.985  -6.770  -0.000  -0.000   0.001
 -0.000  -0.000  -0.354  -0.000  -0.000
 -0.000  -0.000  -0.000  -0.354  -0.000
  0.000   0.001  -0.000  -0.000  -0.353
 total augmentation occupancy for first ion, spin component:           1
  3.506  -1.041  -0.000   0.000  -0.088
 -1.041   0.310   0.000   0.000   0.027
 -0.000   0.000   0.000   0.000   0.000
  0.000   0.000   0.000   0.000   0.000
 -0.088   0.027   0.000   0.000   0.003


------------------------ aborting loop because EDIFF is reached ----------------------------------------


    CHARGE:  cpu time    0.0016: real time    0.0016
    FORLOC:  cpu time    0.0014: real time    0.0014
    FORNL :  cpu time    0.0024: real time    0.0024
    STRESS:  cpu time    0.0098: real time    0.0099
    FORCOR:  cpu time    0.0159: real time    0.0160
    FORHAR:  cpu time    0.0048: real time    0.0048
    MIXING:  cpu time    0.0006: real time    0.0006
    OFIELD:  cpu time    0.0000: real time    0.0000

  FORCE on cell =-STRESS in cart. coord.  units (eV):
  Direction    XX          YY          ZZ          XY          YZ          ZX
  --------------------------------------------------------------------------------------
  Alpha Z     2.23686     2.23686     2.23686
  Ewald     -16.18704   -10.99071   -10.99071    -0.00000     0.00000     0.00000
  Hartree    -4.22760     6.85226     6.85226    -0.00000    -0.00000    -0.00000
  E(xc)      -8.82524    -8.66568    -8.66568     0.00000     0.00000    -0.00000
  Local       0.46528   -13.41540   -13.41540    -0.00000    -0.00000    -0.00000
  n-local    -0.53608     0.70081     0.70081    -0.00000     0.00000     0.00000
  augment    -0.08595    -0.16427    -0.16427     0.00000     0.00000     0.00000
  Kinetic    20.02587     9.87587     9.87587     0.00000     0.00000     0.00000
  Fock        0.00000     0.00000     0.00000     0.00000     0.00000     0.00000
  -------------------------------------------------------------------------------------
  Total      -7.13390   -13.57026   -13.57026     0.00000    -0.00000    -0.00000
  in kB    -254.37198  -483.87207  -483.87207     0.00000    -0.00000    -0.00000
  external pressure =     -407.37 kB  Pullay stress =        0.00 kB


 VOLUME and BASIS-vectors are now :
 -----------------------------------------------------------------------------
  energy-cutoff  :      250.00
  volume of cell :       44.93
      direct lattice vectors                 reciprocal lattice vectors
     6.348565912  0.000000000  0.000000000     0.157515888  0.000000000 -0.000000000
     0.000000000  2.660395829  0.000000000    -0.000000000  0.375883915 -0.000000000
     0.000000000  0.000000000  2.660395829    -0.000000000 -0.000000000  0.375883915

  length of vectors
     6.348565912  2.660395829  2.660395829     0.157515888  0.375883915  0.375883915


 FORCES acting on ions
    electron-ion (+dipol)            ewald-force                    non-local-force                 convergence-correction
 -----------------------------------------------------------------------------------------------
   -.132E+02 -.367E-08 -.730E-04   0.123E+02 0.204E-16 -.608E-16   -.975E+00 0.159E-28 -.167E-28   0.833E-02 -.414E-12 -.414E-12
   0.132E+02 -.367E-08 0.730E-04   -.123E+02 0.695E-16 -.564E-16   0.975E+00 0.197E-28 -.381E-28   -.833E-02 -.414E-12 -.414E-12
   0.230E-07 -.156E-08 -.156E-08   -.251E-05 0.160E-15 -.228E-15   0.308E-24 0.439E-27 0.213E-27   -.285E-07 -.143E-14 -.141E-14
 -----------------------------------------------------------------------------------------------
   0.409E-05 -.891E-08 -.903E-08   0.102E-19 0.249E-15 -.346E-15   0.308E-24 0.474E-27 0.158E-27   -.191E-07 -.829E-12 -.829E-12


 POSITION                                       TOTAL-FORCE (eV/Angst)
 -----------------------------------------------------------------------------------
      4.91489      1.33020      1.33020        -1.891642     -0.000000     -0.000000
      1.43368      1.33020      1.33020         1.891642      0.000000      0.000000
      3.17428      1.33020      1.33020         0.000000      0.000000      0.000000
 -----------------------------------------------------------------------------------
    total drift:                                0.000004     -0.000000     -0.000000


--------------------------------------------------------------------------------------------------------



  FREE ENERGIE OF THE ION-ELECTRON SYSTEM (eV)
  ---------------------------------------------------
  free  energy   TOTEN  =       -15.03027225 eV

  energy  without entropy=      -15.03027225  energy(sigma->0) =      -15.03027225

 d Force = 0.1103424E+01[ 0.885E+00, 0.132E+01]  d Energy = 0.2158305E+01-0.105E+01
 d Force =-0.4755189E+01[-0.575E+01,-0.376E+01]  d Ewald  =-0.3167216E+01-0.159E+01


--------------------------------------------------------------------------------------------------------


    POTLOK:  cpu time    0.0208: real time    0.0209


--------------------------------------------------------------------------------------------------------




--------------------------------------------------------------------------------------------------------


 writing wavefunctions
     LOOP+:  cpu time    0.2513: real time    2.0999
    4ORBIT:  cpu time    0.0000: real time    0.0000

 total amount of memory used by VASP MPI-rank0    32276. kBytes
=======================================================================

   base      :      30000. kBytes
   nonl-proj :         43. kBytes
   fftplans  :        800. kBytes
   grid      :       1404. kBytes
   one-center:         12. kBytes
   wavefun   :         17. kBytes

  
  
 General timing and accounting informations for this job:
 ========================================================
  
                  Total CPU time used (sec):        1.787
                            User time (sec):        1.587
                          System time (sec):        0.200
                         Elapsed time (sec):       27.065
  
                   Maximum memory used (kb):      219320.
                   Average memory used (kb):          N/A
  
                          Minor page faults:        11080
                          Major page faults:            4
                 Voluntary context switches:         1726
