<?xml version="1.0" encoding="ISO-8859-1"?>
<modeling>
 <generator>
  <i name="program" type="string">vasp </i>
  <i name="version" type="string">6.2.1  </i>
  <i name="subversion" type="string">16May21 (build Dec 20 2021 17:15:01) gamma-only                       parallel </i>
  <i name="platform" type="string">LinuxGNU </i>
  <i name="date" type="string">2026 02 04 </i>
  <i name="time" type="string">17:12:25 </i>
 </generator>
 <incar>
  <i type="int" name="IBRION">     2</i>
  <i type="int" name="NSW">   100</i>
  <i type="int" name="ISIF">     3</i>
  <i name="ENCUT">    500.00000000</i>
  <i type="int" name="ISMEAR">     0</i>
 </incar>
 <primitive_cell>
  <structure name="primitive_cell" >
   <crystal>
    <varray name="basis" >
     <v>      10.32500005       0.00000000       0.00000000 </v>
     <v>       0.00000000      10.32500005       0.00000000 </v>
     <v>       0.00000000       0.00000000      10.32500005 </v>
    </varray>
    <i name="volume">   1100.70309338 </i>
    <varray name="rec_basis" >
     <v>       0.09685230       0.00000000       0.00000000 </v>
     <v>       0.00000000       0.09685230       0.00000000 </v>
     <v>       0.00000000       0.00000000       0.09685230 </v>
    </varray>
   </crystal>
   <varray name="positions" >
    <v>       0.28983050       0.16101695       0.16101695 </v>
    <v>       0.03220339       0.16101695       0.16101695 </v>
    <v>       0.16101695       0.16101695       0.16101695 </v>
   </varray>
  </structure>
  <varray name="primitive_index" >
   <v type="int" >        1 </v>
   <v type="int" >        2 </v>
   <v type="int" >        3 </v>
  </varray>
 </primitive_cell>
 <kpoints>
  <generation param="Monkhorst-Pack">
   <v type="int" name="divisions">       1        1        1 </v>
   <v name="usershift">      0.00000000       0.00000000       0.00000000 </v>
   <v name="genvec1">      1.00000000       0.00000000       0.00000000 </v>
   <v name="genvec2">      0.00000000       1.00000000       0.00000000 </v>
   <v name="genvec3">      0.00000000       0.00000000       1.00000000 </v>
   <v name="shift">      0.00000000       0.00000000       0.00000000 </v>
  </generation>
  <varray name="kpointlist" >
   <v>       0.00000000       0.00000000       0.00000000 </v>
  </varray>
  <varray name="weights" >
   <v>       1.00000000 </v>
  </varray>
 </kpoints>
 <parameters>
  <separator name="general" >
   <i type="string" name="SYSTEM">unknown system</i>
   <i type="logical" name="LCOMPAT"> F  </i>
  </separator>
  <separator name="electronic" >
   <i type="string" name="PREC">normal</i>
   <i name="ENMAX">    500.00000000</i>
   <i name="ENAUG">    527.98500000</i>
   <i name="EDIFF">      0.00010000</i>
   <i type="int" name="IALGO">    38</i>
   <i type="int" name="IWAVPR">    11</i>
   <i type="int" name="NBANDS">     6</i>
   <i type="int" name="NBANDSLOW">    -1</i>
   <i type="int" name="NBANDSHIGH">    -1</i>
   <i name="NELECT">      4.00000000</i>
   <i type="int" name="TURBO">     0</i>
   <i type="int" name="IRESTART">     0</i>
   <i type="int" name="NREBOOT">     0</i>
   <i type="int" name="NMIN">     0</i>
   <i name="EREF">      0.00000000</i>
   <separator name="electronic smearing" >
    <i type="int" name="ISMEAR">     0</i>
    <i name="SIGMA">      0.20000000</i>
    <i name="KSPACING">      0.50000000</i>
    <i type="logical" name="KGAMMA"> T  </i>
    <i type="logical" name="KBLOWUP"> T  </i>
   </separator>
   <separator name="electronic projectors" >
    <i type="logical" name="LREAL"> F  </i>
    <v name="ROPT">      0.00000000      0.00000000</v>
    <i type="int" name="LMAXPAW">  -100</i>
    <i type="int" name="LMAXMIX">     2</i>
    <i type="logical" name="NLSPLINE"> F  </i>
   </separator>
   <separator name="electronic startup" >
    <i type="int" name="ISTART">     1</i>
    <i type="int" name="ICHARG">     0</i>
    <i type="int" name="INIWAV">     1</i>
   </separator>
   <separator name="electronic spin" >
    <i type="int" name="ISPIN">     1</i>
    <i type="logical" name="LNONCOLLINEAR"> F  </i>
    <v name="MAGMOM">      1.00000000      1.00000000      1.00000000</v>
    <i name="NUPDOWN">     -1.00000000</i>
    <i type="logical" name="LSORBIT"> F  </i>
    <v name="SAXIS">      0.00000000      0.00000000      1.00000000</v>
    <i type="logical" name="LSPIRAL"> F  </i>
    <v name="QSPIRAL">      0.00000000      0.00000000      0.00000000</v>
    <i type="logical" name="LZEROZ"> F  </i>
   </separator>
   <separator name="electronic exchange-correlation" >
    <i type="logical" name="LASPH"> F  </i>
    <i type="logical" name="LMETAGGA"> F  </i>
   </separator>
   <separator name="electronic convergence" >
    <i type="int" name="NELM">    60</i>
    <i type="int" name="NELMDL">     0</i>
    <i type="int" name="NELMIN">     2</i>
    <i name="ENINI">    500.00000000</i>
    <separator name="electronic convergence detail" >
     <i type="logical" name="LDIAG"> T  </i>
     <i type="logical" name="LSUBROT"> F  </i>
     <i name="WEIMIN">      0.00100000</i>
     <i name="EBREAK">      0.00000417</i>
     <i name="DEPER">      0.30000000</i>
     <i type="int" name="NRMM">     4</i>
     <i name="TIME">      0.40000000</i>
    </separator>
   </separator>
   <separator name="electronic mixer" >
    <i name="AMIX">      0.40000000</i>
    <i name="BMIX">      1.00000000</i>
    <i name="AMIN">      0.10000000</i>
    <i name="AMIX_MAG">      1.60000000</i>
    <i name="BMIX_MAG">      1.00000000</i>
    <separator name="electronic mixer details" >
     <i type="int" name="IMIX">     4</i>
     <i type="logical" name="MIXFIRST"> F  </i>
     <i type="int" name="MAXMIX">   -45</i>
     <i name="WC">    100.00000000</i>
     <i type="int" name="INIMIX">     1</i>
     <i type="int" name="MIXPRE">     1</i>
     <i type="int" name="MREMOVE">     5</i>
    </separator>
   </separator>
   <separator name="electronic dipolcorrection" >
    <i type="logical" name="LDIPOL"> F  </i>
    <i type="logical" name="LMONO"> F  </i>
    <i type="int" name="IDIPOL">     0</i>
    <i name="EPSILON">      1.00000000</i>
    <v name="DIPOL">   -100.00000000   -100.00000000   -100.00000000</v>
    <i name="EFIELD">      0.00000000</i>
   </separator>
  </separator>
  <separator name="grids" >
   <i type="int" name="NGX">    56</i>
   <i type="int" name="NGY">    56</i>
   <i type="int" name="NGZ">    56</i>
   <i type="int" name="NGXF">   112</i>
   <i type="int" name="NGYF">   112</i>
   <i type="int" name="NGZF">   112</i>
   <i type="logical" name="ADDGRID"> F  </i>
  </separator>
  <separator name="ionic" >
   <i type="int" name="NSW">   100</i>
   <i type="int" name="IBRION">     2</i>
   <i type="int" name="MDALGO">     0</i>
   <i type="int" name="ISIF">     3</i>
   <i name="PSTRESS">      0.00000000</i>
   <i name="EDIFFG">      0.00100000</i>
   <i type="int" name="NFREE">     1</i>
   <i name="POTIM">      0.50000000</i>
   <i name="SMASS">     -3.00000000</i>
   <i name="SCALEE">      1.00000000</i>
  </separator>
  <separator name="ionic md" >
   <i name="TEBEG">      0.00010000</i>
   <i name="TEEND">      0.00010000</i>
   <i type="int" name="NBLOCK">     1</i>
   <i type="int" name="KBLOCK">   100</i>
   <i type="int" name="NPACO">   256</i>
   <i name="APACO">     16.00000000</i>
  </separator>
  <separator name="symmetry" >
   <i type="int" name="ISYM">     2</i>
   <i name="SYMPREC">      0.00001000</i>
  </separator>
  <separator name="dos" >
   <i type="int" name="LORBIT">     0</i>
   <v name="RWIGS">     -1.00000000     -1.00000000</v>
   <i type="int" name="NEDOS">   301</i>
   <i name="EMIN">     10.00000000</i>
   <i name="EMAX">    -10.00000000</i>
   <i name="EFERMI">      0.00000000</i>
  </separator>
  <separator name="writing" >
   <i type="int" name="NWRITE">     2</i>
   <i type="logical" name="LWAVE"> T  </i>
   <i type="logical" name="LDOWNSAMPLE"> F  </i>
   <i type="logical" name="LCHARG"> T  </i>
   <i type="logical" name="LPARD"> F  </i>
   <i type="logical" name="LVTOT"> F  </i>
   <i type="logical" name="LVHAR"> F  </i>
   <i type="logical" name="LELF"> F  </i>
   <i type="logical" name="LOPTICS"> F  </i>
   <v name="STM">      0.00000000      0.00000000      0.00000000      0.00000000      0.00000000      0.00000000      0.00000000</v>
  </separator>
  <separator name="performance" >
   <i type="int" name="NPAR">     1</i>
   <i type="int" name="NSIM">     4</i>
   <i type="int" name="NBLK">    -1</i>
   <i type="logical" name="LPLANE"> T  </i>
   <i type="logical" name="LSCALAPACK"> T  </i>
   <i type="logical" name="LSCAAWARE"> F  </i>
   <i type="logical" name="LSCALU"> F  </i>
   <i type="logical" name="LASYNC"> F  </i>
   <i type="logical" name="LORBITALREAL"> F  </i>
  </separator>
  <separator name="miscellaneous" >
   <i type="int" name="IDIOT">     3</i>
   <i type="int" name="PHON_NSTRUCT">    -1</i>
   <i type="logical" name="LMUSIC"> F  </i>
   <v name="POMASS">      1.00000000      9.01300000</v>
   <v name="DARWINR">      0.00000000      0.00000000</v>
   <v name="DARWINV">      1.00000000      1.00000000</v>
   <i type="logical" name="LCORR"> T  </i>
  </separator>
  <i type="logical" name="GGA_COMPAT"> T  </i>
  <i type="logical" name="LBERRY"> F  </i>
  <i type="int" name="ICORELEVEL">     0</i>
  <i type="logical" name="LDAU"> F  </i>
  <i type="int" name="I_CONSTRAINED_M">     0</i>
  <separator name="electronic exchange-correlation" >
   <i type="string" name="GGA">--</i>
   <i type="int" name="VOSKOWN">     0</i>
   <i type="logical" name="LHFCALC"> F  </i>
   <i type="string" name="PRECFOCK"></i>
   <i type="logical" name="LSYMGRAD"> F  </i>
   <i type="logical" name="LHFONE"> F  </i>
   <i type="logical" name="LRHFCALC"> F  </i>
   <i type="logical" name="LTHOMAS"> F  </i>
   <i type="logical" name="LMODELHF"> F  </i>
   <i type="logical" name="LFOCKACE"> F  </i>
   <i name="ENCUT4O">     -1.00000000</i>
   <i type="int" name="EXXOEP">     0</i>
   <i type="int" name="FOURORBIT">     0</i>
   <i name="AEXX">      0.00000000</i>
   <i name="HFALPHA">      0.00000000</i>
   <i name="MCALPHA">      0.00000000</i>
   <i name="ALDAX">      1.00000000</i>
   <i name="AGGAX">      1.00000000</i>
   <i name="ALDAC">      1.00000000</i>
   <i name="AGGAC">      1.00000000</i>
   <i type="int" name="NKREDX">     1</i>
   <i type="int" name="NKREDY">     1</i>
   <i type="int" name="NKREDZ">     1</i>
   <i type="logical" name="SHIFTRED"> F  </i>
   <i type="logical" name="ODDONLY"> F  </i>
   <i type="logical" name="EVENONLY"> F  </i>
   <i type="int" name="LMAXFOCK">     0</i>
   <i type="int" name="NMAXFOCKAE">     0</i>
   <i type="logical" name="LFOCKAEDFT"> F  </i>
   <i name="HFSCREEN">      0.00000000</i>
   <i name="HFSCREENC">      0.00000000</i>
   <i type="int" name="NBANDSGWLOW">     0</i>
  </separator>
  <separator name="vdW DFT" >
   <i type="logical" name="LUSE_VDW"> F  </i>
   <i name="Zab_VDW">     -0.84910000</i>
   <i name="PARAM1">      0.12340000</i>
   <i name="PARAM2">      1.00000000</i>
   <i name="PARAM3">      0.00000000</i>
  </separator>
  <separator name="model GW" >
   <i type="int" name="MODEL_GW">     0</i>
   <i name="MODEL_EPS0">    220.14061868</i>
   <i name="MODEL_ALPHA">      1.00000000</i>
  </separator>
  <separator name="linear response parameters" >
   <i type="logical" name="LEPSILON"> F  </i>
   <i type="logical" name="LRPA"> F  </i>
   <i type="logical" name="LNABLA"> F  </i>
   <i type="logical" name="LVEL"> F  </i>
   <i type="int" name="KINTER">     0</i>
   <i name="CSHIFT">      0.10000000</i>
   <i name="OMEGAMAX">     -1.00000000</i>
   <i name="DEG_THRESHOLD">      0.00200000</i>
   <i name="RTIME">     -0.10000000</i>
   <i name="WPLASMAI">      0.00000000</i>
   <v name="DFIELD">      0.00000000      0.00000000      0.00000000</v>
   <v name="WPLASMA">      0.00000000      0.00000000      0.00000000      0.00000000      0.00000000      0.00000000      0.00000000      0.00000000      0.00000000</v>
  </separator>
  <separator name="orbital magnetization" >
   <i type="logical" name="NUCIND"> F  </i>
   <v name="MAGPOS">      0.00000000      0.00000000      0.00000000</v>
   <i type="logical" name="LNICSALL"> T  </i>
   <i type="logical" name="ORBITALMAG"> F  </i>
   <i type="logical" name="LMAGBLOCH"> F  </i>
   <i type="logical" name="LCHIMAG"> F  </i>
   <i type="logical" name="LGAUGE"> T  </i>
   <i type="int" name="MAGATOM">     0</i>
   <v name="MAGDIPOL">      0.00000000      0.00000000      0.00000000</v>
   <v name="AVECCONST">      0.00000000      0.00000000      0.00000000</v>
  </separator>
  <separator name="response functions" >
   <i type="logical" name="LFINITE_TEMPERATURE"> F  </i>
   <i type="logical" name="LADDER"> F  </i>
   <i type="logical" name="LRPAFORCE"> F  </i>
   <i type="logical" name="LFXC"> F  </i>
   <i type="logical" name="LHARTREE"> T  </i>
   <i type="int" name="IBSE">     0</i>
   <v type="int" name="KPOINT">    -1     0     0     0</v>
   <i type="logical" name="LTCTC"> F  </i>
   <i type="logical" name="LTCTE"> F  </i>
   <i type="logical" name="LTETE"> F  </i>
   <i type="logical" name="LTRIPLET"> F  </i>
   <i type="logical" name="LFXCEPS"> F  </i>
   <i type="logical" name="LFXHEG"> F  </i>
   <i type="int" name="NATURALO">     2</i>
   <i type="logical" name="LHOLEGF"> F  </i>
   <i type="logical" name="L2ORDER"> F  </i>
   <i type="logical" name="LDMP1"> F  </i>
   <i type="logical" name="LMP2LT"> F  </i>
   <i type="logical" name="LSMP2LT"> F  </i>
   <i type="logical" name="LGWLF"> F  </i>
   <i name="ENCUTGW">     -2.00000000</i>
   <i name="ENCUTGWSOFT">     -2.00000000</i>
   <i name="ENCUTLF">     -1.00000000</i>
   <i type="logical" name="LESF_SPLINES"> F  </i>
   <i type="int" name="LMAXMP2">    -1</i>
   <i name="SCISSOR">      0.00000000</i>
   <i type="int" name="NOMEGA">     0</i>
   <i type="int" name="NOMEGAR">     0</i>
   <i type="int" name="NBANDSGW">    -1</i>
   <i type="int" name="NBANDSO">    -1</i>
   <i type="int" name="NBANDSV">    -1</i>
   <i type="int" name="NELM">     1</i>
   <i type="int" name="NELMHF">     1</i>
   <i type="int" name="DIM">     3</i>
   <i type="int" name="IESPILON">     4</i>
   <i type="int" name="ANTIRES">     0</i>
   <i name="OMEGAMAX">    -30.00000000</i>
   <i name="OMEGAMIN">    -30.00000000</i>
   <i name="OMEGATL">   -200.00000000</i>
   <i type="int" name="OMEGAGRID">     0</i>
   <i name="CSHIFT">     -0.10000000</i>
   <i type="logical" name="LSELFENERGY"> F  </i>
   <i type="logical" name="LSPECTRAL"> F  </i>
   <i type="logical" name="LSPECTRALGW"> F  </i>
   <i type="logical" name="LSINGLES"> F  </i>
   <i type="logical" name="LFERMIGW"> F  </i>
   <i type="logical" name="ODDONLYGW"> F  </i>
   <i type="logical" name="EVENONLYGW"> F  </i>
   <i type="int" name="NKREDLFX">     1</i>
   <i type="int" name="NKREDLFY">     1</i>
   <i type="int" name="NKREDLFZ">     1</i>
   <i type="int" name="MAXMEM">  2800</i>
   <i type="int" name="TELESCOPE">     0</i>
   <i type="int" name="NTAUPAR">    -1</i>
   <i type="int" name="NOMEGAPAR">    -1</i>
   <i name="DAMP_NEWTON">      0.80000001</i>
   <i name="LAMBDA">      1.00000000</i>
  </separator>
  <separator name="External order field" >
   <i name="OFIELD_KAPPA">      0.00000000</i>
   <v name="OFIELD_K">      0.00000000      0.00000000      0.00000000</v>
   <i name="OFIELD_Q6_NEAR">      0.00000000</i>
   <i name="OFIELD_Q6_FAR">      0.00000000</i>
   <i name="OFIELD_A">      0.00000000</i>
  </separator>
 </parameters>
 <atominfo>
  <atoms>       3 </atoms>
  <types>       2 </types>
  <array name="atoms" >
   <dimension dim="1">ion</dimension>
   <field type="string">element</field>
   <field type="int">atomtype</field>
   <set>
    <rc><c>H </c><c>   1</c></rc>
    <rc><c>H </c><c>   1</c></rc>
    <rc><c>Be</c><c>   2</c></rc>
   </set>
  </array>
  <array name="atomtypes" >
   <dimension dim="1">type</dimension>
   <field type="int">atomspertype</field>
   <field type="string">element</field>
   <field>mass</field>
   <field>valence</field>
   <field type="string">pseudopotential</field>
   <set>
    <rc><c>   2</c><c>H </c><c>      1.00000000</c><c>      1.00000000</c><c>  PAW_PBE H 15Jun2001                   </c></rc>
    <rc><c>   1</c><c>Be</c><c>      9.01300000</c><c>      2.00000000</c><c>  PAW_PBE Be_GW 04Mar2008               </c></rc>
   </set>
  </array>
 </atominfo>
 <structure name="initialpos" >
  <crystal>
   <varray name="basis" >
    <v>      10.32500005       0.00000000       0.00000000 </v>
    <v>       0.00000000      10.32500005       0.00000000 </v>
    <v>       0.00000000       0.00000000      10.32500005 </v>
   </varray>
   <i name="volume">   1100.70309338 </i>
   <varray name="rec_basis" >
    <v>       0.09685230       0.00000000       0.00000000 </v>
    <v>       0.00000000       0.09685230       0.00000000 </v>
    <v>       0.00000000       0.00000000       0.09685230 </v>
   </varray>
  </crystal>
  <varray name="positions" >
   <v>       0.28983050       0.16101695       0.16101695 </v>
   <v>       0.03220339       0.16101695       0.16101695 </v>
   <v>       0.16101695       0.16101695       0.16101695 </v>
  </varray>
 </structure>
 <calculation>
  <scstep>
   <time name="dav">    0.28    0.29</time>
   <time name="total">    1.55    2.06</time>
   <energy>
    <i name="alphaZ">      0.09131387 </i>
    <i name="ewald">     17.47667994 </i>
    <i name="hartreedc">     -0.54033221 </i>
    <i name="XCdc">      1.88944327 </i>
    <i name="pawpsdc">      0.85303190 </i>
    <i name="pawaedc">      0.02025071 </i>
    <i name="eentropy">     -0.00000000 </i>
    <i name="bandstr">   -111.26041072 </i>
    <i name="atom">     52.49568407 </i>
    <i name="e_fr_energy">    -38.97433916 </i>
    <i name="e_wo_entrp">    -38.97433916 </i>
    <i name="e_0_energy">    -38.97433916 </i>
   </energy>
  </scstep>
  <scstep>
   <time name="dav">    0.28    0.29</time>
   <time name="total">    1.52    1.62</time>
   <energy>
    <i name="e_fr_energy">    -47.05628727 </i>
    <i name="e_wo_entrp">    -47.05628727 </i>
    <i name="e_0_energy">    -47.05628727 </i>
   </energy>
  </scstep>
  <scstep>
   <time name="dav">    0.27    0.30</time>
   <time name="total">    1.51    1.57</time>
   <energy>
    <i name="e_fr_energy">    -45.51623481 </i>
    <i name="e_wo_entrp">    -45.51623481 </i>
    <i name="e_0_energy">    -45.51623481 </i>
   </energy>
  </scstep>
  <scstep>
   <time name="dav">    0.23    0.23</time>
   <time name="total">    1.42    1.43</time>
   <energy>
    <i name="e_fr_energy">    -14.58807290 </i>
    <i name="e_wo_entrp">    -14.58807290 </i>
    <i name="e_0_energy">    -14.58807290 </i>
   </energy>
  </scstep>
  <scstep>
   <time name="dav">    0.32    0.32</time>
   <time name="total">    1.48    1.51</time>
   <energy>
    <i name="e_fr_energy">    -15.64441396 </i>
    <i name="e_wo_entrp">    -15.64441396 </i>
    <i name="e_0_energy">    -15.64441396 </i>
   </energy>
  </scstep>
  <scstep>
   <time name="dav">    0.31    0.31</time>
   <time name="total">    1.49    1.51</time>
   <energy>
    <i name="e_fr_energy">    -11.26911190 </i>
    <i name="e_wo_entrp">    -11.26911190 </i>
    <i name="e_0_energy">    -11.26911190 </i>
   </energy>
  </scstep>
  <scstep>
   <time name="dav">    0.24    0.25</time>
   <time name="total">    1.37    1.39</time>
   <energy>
    <i name="e_fr_energy">    -14.41431873 </i>
    <i name="e_wo_entrp">    -14.41431873 </i>
    <i name="e_0_energy">    -14.41431873 </i>
   </energy>
  </scstep>
  <scstep>
   <time name="dav">    0.30    0.30</time>
   <time name="total">    1.44    1.45</time>
   <energy>
    <i name="e_fr_energy">  -2209.35194828 </i>
    <i name="e_wo_entrp">  -2209.35194828 </i>
    <i name="e_0_energy">  -2209.35194828 </i>
   </energy>
  </scstep>
  <scstep>
   <time name="dav">    0.18    0.18</time>
   <time name="total">    1.33    1.34</time>
   <energy>
    <i name="e_fr_energy">   -822.02885034 </i>
    <i name="e_wo_entrp">   -822.02885034 </i>
    <i name="e_0_energy">   -822.02885034 </i>
   </energy>
  </scstep>
  <scstep>
   <time name="dav">    0.18    0.18</time>
   <time name="total">    1.34    1.36</time>
   <energy>
    <i name="e_fr_energy">   -567.83567735 </i>
    <i name="e_wo_entrp">   -567.61000724 </i>
    <i name="e_0_energy">   -567.72284229 </i>
   </energy>
  </scstep>
  <scstep>
   <time name="dav">    0.19    0.19</time>
   <time name="total">    1.38    1.39</time>
   <energy>
    <i name="e_fr_energy">     15.36335577 </i>
    <i name="e_wo_entrp">     15.58775604 </i>
    <i name="e_0_energy">     15.47555591 </i>
   </energy>
  </scstep>
  <scstep>
   <time name="dav">    0.33    0.41</time>
   <time name="total">    1.56    1.64</time>
   <energy>
    <i name="e_fr_energy">     -9.93622194 </i>
    <i name="e_wo_entrp">     -9.93622194 </i>
    <i name="e_0_energy">     -9.93622194 </i>
   </energy>
  </scstep>
  <scstep>
   <time name="dav">    0.34    0.34</time>
   <time name="total">    1.51    1.53</time>
   <energy>
    <i name="e_fr_energy">     -8.44780352 </i>
    <i name="e_wo_entrp">     -8.44780352 </i>
    <i name="e_0_energy">     -8.44780352 </i>
   </energy>
  </scstep>
  <scstep>
   <time name="dav">    0.19    0.19</time>
   <time name="total">    1.36    1.64</time>
   <energy>
    <i name="e_fr_energy">     -8.66470341 </i>
    <i name="e_wo_entrp">     -8.66470341 </i>
    <i name="e_0_energy">     -8.66470341 </i>
   </energy>
  </scstep>
  <scstep>
   <time name="dav">    0.33    0.38</time>
   <time name="total">    1.46    1.74</time>
   <energy>
    <i name="e_fr_energy">     -9.59274659 </i>
    <i name="e_wo_entrp">     -9.59274659 </i>
    <i name="e_0_energy">     -9.59274659 </i>
   </energy>
  </scstep>
  <scstep>
   <time name="dav">    0.33    0.35</time>
   <time name="total">    1.49    1.65</time>
   <energy>
    <i name="e_fr_energy">     -8.60638975 </i>
    <i name="e_wo_entrp">     -8.60638975 </i>
    <i name="e_0_energy">     -8.60638975 </i>
   </energy>
  </scstep>
  <scstep>
   <time name="dav">    0.20    0.22</time>
   <time name="total">    1.32    1.65</time>
   <energy>
    <i name="e_fr_energy">     -8.59737434 </i>
    <i name="e_wo_entrp">     -8.59737434 </i>
    <i name="e_0_energy">     -8.59737434 </i>
   </energy>
  </scstep>
  <scstep>
   <time name="dav">    0.26    0.28</time>
   <time name="total">    1.43    1.53</time>
   <energy>
    <i name="e_fr_energy">     -8.58503694 </i>
    <i name="e_wo_entrp">     -8.58503694 </i>
    <i name="e_0_energy">     -8.58503694 </i>
   </energy>
  </scstep>
  <scstep>
   <time name="dav">    0.22    0.22</time>
   <time name="total">    1.40    1.54</time>
   <energy>
    <i name="e_fr_energy">     -8.59769370 </i>
    <i name="e_wo_entrp">     -8.59769370 </i>
    <i name="e_0_energy">     -8.59769370 </i>
   </energy>
  </scstep>
  <scstep>
   <time name="dav">    0.17    0.17</time>
   <time name="total">    1.36    1.36</time>
   <energy>
    <i name="e_fr_energy">     -8.60662003 </i>
    <i name="e_wo_entrp">     -8.60662003 </i>
    <i name="e_0_energy">     -8.60662003 </i>
   </energy>
  </scstep>
  <scstep>
   <time name="dav">    0.17    0.17</time>
   <time name="total">    1.33    1.33</time>
   <energy>
    <i name="e_fr_energy">     -8.61396229 </i>
    <i name="e_wo_entrp">     -8.61396229 </i>
    <i name="e_0_energy">     -8.61396229 </i>
   </energy>
  </scstep>
  <scstep>
   <time name="dav">    0.19    0.19</time>
   <time name="total">    1.40    1.41</time>
   <energy>
    <i name="e_fr_energy">     -8.61690924 </i>
    <i name="e_wo_entrp">     -8.61690924 </i>
    <i name="e_0_energy">     -8.61690924 </i>
   </energy>
  </scstep>
  <scstep>
   <time name="dav">    0.19    0.19</time>
   <time name="total">    1.40    1.41</time>
   <energy>
    <i name="e_fr_energy">     -8.61583439 </i>
    <i name="e_wo_entrp">     -8.61583439 </i>
    <i name="e_0_energy">     -8.61583439 </i>
   </energy>
  </scstep>
  <scstep>
   <time name="dav">    0.20    0.20</time>
   <time name="total">    1.42    1.43</time>
   <energy>
    <i name="e_fr_energy">     -8.61666466 </i>
    <i name="e_wo_entrp">     -8.61666466 </i>
    <i name="e_0_energy">     -8.61666466 </i>
   </energy>
  </scstep>
  <scstep>
   <time name="dav">    0.24    0.24</time>
   <time name="total">    1.45    1.46</time>
   <energy>
    <i name="e_fr_energy">     -8.61946650 </i>
    <i name="e_wo_entrp">     -8.61946650 </i>
    <i name="e_0_energy">     -8.61946650 </i>
   </energy>
  </scstep>
  <scstep>
   <time name="dav">    0.19    0.20</time>
   <time name="total">    1.40    1.42</time>
   <energy>
    <i name="e_fr_energy">     -8.62075055 </i>
    <i name="e_wo_entrp">     -8.62075055 </i>
    <i name="e_0_energy">     -8.62075055 </i>
   </energy>
  </scstep>
  <scstep>
   <time name="dav">    0.16    0.16</time>
   <time name="total">    1.39    1.47</time>
   <energy>
    <i name="e_fr_energy">     -8.62133876 </i>
    <i name="e_wo_entrp">     -8.62133876 </i>
    <i name="e_0_energy">     -8.62133876 </i>
   </energy>
  </scstep>
  <scstep>
   <time name="dav">    0.10    0.10</time>
   <time name="total">    1.08    1.10</time>
   <energy>
    <i name="alphaZ">      0.09131387 </i>
    <i name="ewald">     17.47667994 </i>
    <i name="hartreedc">    -56.92606379 </i>
    <i name="XCdc">      8.38982854 </i>
    <i name="pawpsdc">     59.16334766 </i>
    <i name="pawaedc">    -58.59820400 </i>
    <i name="eentropy">     -0.00000000 </i>
    <i name="bandstr">    -30.71396587 </i>
    <i name="atom">     52.49568407 </i>
    <i name="e_fr_energy">     -8.62137958 </i>
    <i name="e_wo_entrp">     -8.62137958 </i>
    <i name="e_0_energy">     -8.62137958 </i>
   </energy>
  </scstep>
  <structure>
   <crystal>
    <varray name="basis" >
     <v>      10.32500005       0.00000000       0.00000000 </v>
     <v>       0.00000000      10.32500005       0.00000000 </v>
     <v>       0.00000000       0.00000000      10.32500005 </v>
    </varray>
    <i name="volume">   1100.70309338 </i>
    <varray name="rec_basis" >
     <v>       0.09685230       0.00000000       0.00000000 </v>
     <v>       0.00000000       0.09685230       0.00000000 </v>
     <v>       0.00000000       0.00000000       0.09685230 </v>
    </varray>
   </crystal>
   <varray name="positions" >
    <v>       0.28983050       0.16101695       0.16101695 </v>
    <v>       0.03220339       0.16101695       0.16101695 </v>
    <v>       0.16101695       0.16101695       0.16101695 </v>
   </varray>
  </structure>
  <varray name="forces" >
   <v>       0.07902466      -0.00000000      -0.00000000 </v>
   <v>      -0.07902466       0.00000000      -0.00000000 </v>
   <v>       0.00000000       0.00000000       0.00000000 </v>
  </varray>
  <varray name="stress" >
   <v>       0.54368776      -0.00000000       0.00000000 </v>
   <v>       0.00000000      -0.59806644      -0.00000000 </v>
   <v>       0.00000000       0.00000000      -0.59806644 </v>
  </varray>
  <energy>
   <i name="e_fr_energy">     -8.62137958 </i>
   <i name="e_wo_entrp">     -8.62137958 </i>
   <i name="e_0_energy">     -8.62137958 </i>
  </energy>
  <time name="totalsc">   45.20   53.24</time>
 </calculation>
 <calculation>
  <scstep>
   <time name="dav">    0.20    0.20</time>
   <time name="total">    1.32    1.36</time>
   <energy>
    <i name="alphaZ">      0.09198013 </i>
    <i name="ewald">     16.96774690 </i>
    <i name="hartreedc">    -56.81443502 </i>
    <i name="XCdc">      8.39999555 </i>
    <i name="pawpsdc">     59.47524933 </i>
    <i name="pawaedc">    -58.90869082 </i>
    <i name="eentropy">     -0.00000000 </i>
    <i name="bandstr">    -30.33452833 </i>
    <i name="atom">     52.49568407 </i>
    <i name="e_fr_energy">     -8.62699819 </i>
    <i name="e_wo_entrp">     -8.62699819 </i>
    <i name="e_0_energy">     -8.62699819 </i>
   </energy>
  </scstep>
  <scstep>
   <time name="dav">    0.20    0.20</time>
   <time name="total">    1.31    1.33</time>
   <energy>
    <i name="e_fr_energy">     -8.62261228 </i>
    <i name="e_wo_entrp">     -8.62261228 </i>
    <i name="e_0_energy">     -8.62261228 </i>
   </energy>
  </scstep>
  <scstep>
   <time name="dav">    0.24    0.28</time>
   <time name="total">    1.30    1.44</time>
   <energy>
    <i name="e_fr_energy">     -8.62339564 </i>
    <i name="e_wo_entrp">     -8.62339564 </i>
    <i name="e_0_energy">     -8.62339564 </i>
   </energy>
  </scstep>
  <scstep>
   <time name="dav">    0.18    0.22</time>
   <time name="total">    1.25    1.40</time>
   <energy>
    <i name="e_fr_energy">     -8.62479300 </i>
    <i name="e_wo_entrp">     -8.62479300 </i>
    <i name="e_0_energy">     -8.62479300 </i>
   </energy>
  </scstep>
  <scstep>
   <time name="dav">    0.21    0.21</time>
   <time name="total">    1.31    1.35</time>
   <energy>
    <i name="e_fr_energy">     -8.62491675 </i>
    <i name="e_wo_entrp">     -8.62491675 </i>
    <i name="e_0_energy">     -8.62491675 </i>
   </energy>
  </scstep>
  <scstep>
   <time name="dav">    0.21    0.21</time>
   <time name="total">    1.32    1.46</time>
   <energy>
    <i name="e_fr_energy">     -8.62536865 </i>
    <i name="e_wo_entrp">     -8.62536865 </i>
    <i name="e_0_energy">     -8.62536865 </i>
   </energy>
  </scstep>
  <scstep>
   <time name="dav">    0.20    0.23</time>
   <time name="total">    1.34    1.41</time>
   <energy>
    <i name="e_fr_energy">     -8.62550570 </i>
    <i name="e_wo_entrp">     -8.62550570 </i>
    <i name="e_0_energy">     -8.62550570 </i>
   </energy>
  </scstep>
  <scstep>
   <time name="dav">    0.15    0.15</time>
   <time name="total">    1.16    1.17</time>
   <energy>
    <i name="alphaZ">      0.09198013 </i>
    <i name="ewald">     16.96774690 </i>
    <i name="hartreedc">    -55.71355909 </i>
    <i name="XCdc">      8.21053611 </i>
    <i name="pawpsdc">     59.03592850 </i>
    <i name="pawaedc">    -58.49374028 </i>
    <i name="eentropy">     -0.00000000 </i>
    <i name="bandstr">    -31.22013918 </i>
    <i name="atom">     52.49568407 </i>
    <i name="e_fr_energy">     -8.62556284 </i>
    <i name="e_wo_entrp">     -8.62556284 </i>
    <i name="e_0_energy">     -8.62556284 </i>
   </energy>
  </scstep>
  <structure>
   <crystal>
    <varray name="basis" >
     <v>      10.38701682      -0.00000000       0.00000000 </v>
     <v>       0.00000000      10.25678047      -0.00000000 </v>
     <v>       0.00000000       0.00000000      10.25678047 </v>
    </varray>
    <i name="volume">   1092.73022343 </i>
    <varray name="rec_basis" >
     <v>       0.09627403      -0.00000000      -0.00000000 </v>
     <v>       0.00000000       0.09749648      -0.00000000 </v>
     <v>      -0.00000000       0.00000000       0.09749648 </v>
    </varray>
   </crystal>
   <varray name="positions" >
    <v>       0.29019974       0.16101695       0.16101695 </v>
    <v>       0.03183415       0.16101695       0.16101695 </v>
    <v>       0.16101695       0.16101695       0.16101695 </v>
   </varray>
  </structure>
  <varray name="forces" >
   <v>      -0.03720610      -0.00000000       0.00000000 </v>
   <v>       0.03720610       0.00000000       0.00000000 </v>
   <v>      -0.00000000       0.00000000      -0.00000000 </v>
  </varray>
  <varray name="stress" >
   <v>      -0.18202476       0.00000000       0.00000000 </v>
   <v>      -0.00000000      -0.04140111       0.00000000 </v>
   <v>       0.00000000       0.00000000      -0.04140111 </v>
  </varray>
  <energy>
   <i name="e_fr_energy">     -8.62555758 </i>
   <i name="e_wo_entrp">     -8.62555758 </i>
   <i name="e_0_energy">     -8.62555758 </i>
  </energy>
  <time name="totalsc">   13.70   17.86</time>
 </calculation>
 <calculation>
  <scstep>
   <time name="dav">    0.18    0.28</time>
   <time name="total">    1.36    1.54</time>
   <energy>
    <i name="alphaZ">      0.09191360 </i>
    <i name="ewald">     17.00691857 </i>
    <i name="hartreedc">    -55.72489801 </i>
    <i name="XCdc">      8.20993732 </i>
    <i name="pawpsdc">     59.04087918 </i>
    <i name="pawaedc">    -58.49869135 </i>
    <i name="eentropy">     -0.00000000 </i>
    <i name="bandstr">    -31.24736641 </i>
    <i name="atom">     52.49568407 </i>
    <i name="e_fr_energy">     -8.62562302 </i>
    <i name="e_wo_entrp">     -8.62562302 </i>
    <i name="e_0_energy">     -8.62562302 </i>
   </energy>
  </scstep>
  <scstep>
   <time name="dav">    0.24    0.25</time>
   <time name="total">    1.28    1.32</time>
   <energy>
    <i name="alphaZ">      0.09191360 </i>
    <i name="ewald">     17.00691857 </i>
    <i name="hartreedc">    -55.73600393 </i>
    <i name="XCdc">      8.21129563 </i>
    <i name="pawpsdc">     59.10181668 </i>
    <i name="pawaedc">    -58.55973875 </i>
    <i name="eentropy">     -0.00000000 </i>
    <i name="bandstr">    -31.23750883 </i>
    <i name="atom">     52.49568407 </i>
    <i name="e_fr_energy">     -8.62562296 </i>
    <i name="e_wo_entrp">     -8.62562296 </i>
    <i name="e_0_energy">     -8.62562296 </i>
   </energy>
  </scstep>
  <structure>
   <crystal>
    <varray name="basis" >
     <v>      10.38339473       0.00000000       0.00000000 </v>
     <v>       0.00000000      10.26228087      -0.00000000 </v>
     <v>      -0.00000000      -0.00000000      10.26228087 </v>
    </varray>
    <i name="volume">   1093.52107577 </i>
    <varray name="rec_basis" >
     <v>       0.09630762      -0.00000000       0.00000000 </v>
     <v>      -0.00000000       0.09744422       0.00000000 </v>
     <v>      -0.00000000       0.00000000       0.09744422 </v>
    </varray>
   </crystal>
   <varray name="positions" >
    <v>       0.29016045       0.16101695       0.16101695 </v>
    <v>       0.03187344       0.16101695       0.16101695 </v>
    <v>       0.16101695       0.16101695       0.16101695 </v>
   </varray>
  </structure>
  <varray name="forces" >
   <v>      -0.02593480      -0.00000000       0.00000000 </v>
   <v>       0.02593480       0.00000000      -0.00000000 </v>
   <v>      -0.00000000       0.00000000       0.00000000 </v>
  </varray>
  <varray name="stress" >
   <v>      -0.12817183       0.00000000       0.00000000 </v>
   <v>       0.00000000      -0.03046406       0.00000000 </v>
   <v>      -0.00000000       0.00000000      -0.03046406 </v>
  </varray>
  <energy>
   <i name="e_fr_energy">     -8.62562296 </i>
   <i name="e_wo_entrp">     -8.62562296 </i>
   <i name="e_0_energy">     -8.62562296 </i>
  </energy>
  <time name="totalsc">    5.56    9.05</time>
  <eigenvalues>
   <array>
    <dimension dim="1">band</dimension>
    <dimension dim="2">kpoint</dimension>
    <dimension dim="3">spin</dimension>
    <field>eigene</field>
    <field>occ</field>
    <set>
     <set comment="spin 1">
      <set comment="kpoint 1">
       <r>   -8.2726    1.0000 </r>
       <r>   -7.3462    1.0000 </r>
       <r>   -1.5000    0.0000 </r>
       <r>   -1.5000    0.0000 </r>
       <r>   -0.2352    0.0000 </r>
       <r>    0.6319    0.0000 </r>
      </set>
     </set>
    </set>
   </array>
  </eigenvalues>
  <separator name="orbital magnetization" >
   <v name="MAGDIPOLOUT">      0.00000000      0.00000000      0.00000000</v>
  </separator>
  <dos>
   <i name="efermi">     -6.40125063 </i>
   <total>
    <array>
     <dimension dim="1">gridpoints</dimension>
     <dimension dim="2">spin</dimension>
     <field>energy</field>
     <field>total</field>
     <field>integrated</field>
     <set>
      <set comment="spin 1">
       <r>   -10.2726     0.0000     0.0000 </r>
       <r>   -10.2296     0.0000     0.0000 </r>
       <r>   -10.1866     0.0000     0.0000 </r>
       <r>   -10.1435     0.0000     0.0000 </r>
       <r>   -10.1005     0.0000     0.0000 </r>
       <r>   -10.0575     0.0000     0.0000 </r>
       <r>   -10.0145     0.0000     0.0000 </r>
       <r>    -9.9715     0.0000     0.0000 </r>
       <r>    -9.9285     0.0000     0.0000 </r>
       <r>    -9.8855     0.0000     0.0000 </r>
       <r>    -9.8424     0.0000     0.0000 </r>
       <r>    -9.7994     0.0000     0.0000 </r>
       <r>    -9.7564     0.0000     0.0000 </r>
       <r>    -9.7134     0.0000     0.0000 </r>
       <r>    -9.6704     0.0000     0.0000 </r>
       <r>    -9.6274     0.0000     0.0000 </r>
       <r>    -9.5844     0.0000     0.0000 </r>
       <r>    -9.5413     0.0000     0.0000 </r>
       <r>    -9.4983     0.0000     0.0000 </r>
       <r>    -9.4553     0.0000     0.0000 </r>
       <r>    -9.4123     0.0000     0.0000 </r>
       <r>    -9.3693     0.0000     0.0000 </r>
       <r>    -9.3263     0.0000     0.0000 </r>
       <r>    -9.2832     0.0000     0.0000 </r>
       <r>    -9.2402     0.0000     0.0000 </r>
       <r>    -9.1972     0.0000     0.0000 </r>
       <r>    -9.1542     0.0000     0.0000 </r>
       <r>    -9.1112     0.0000     0.0000 </r>
       <r>    -9.0682     0.0000     0.0000 </r>
       <r>    -9.0252     0.0000     0.0000 </r>
       <r>    -8.9821     0.0000     0.0000 </r>
       <r>    -8.9391     0.0000     0.0000 </r>
       <r>    -8.8961     0.0002     0.0000 </r>
       <r>    -8.8531     0.0007     0.0000 </r>
       <r>    -8.8101     0.0024     0.0001 </r>
       <r>    -8.7671     0.0076     0.0005 </r>
       <r>    -8.7241     0.0218     0.0014 </r>
       <r>    -8.6810     0.0573     0.0039 </r>
       <r>    -8.6380     0.1369     0.0098 </r>
       <r>    -8.5950     0.2987     0.0226 </r>
       <r>    -8.5520     0.5945     0.0482 </r>
       <r>    -8.5090     1.0793     0.0946 </r>
       <r>    -8.4660     1.7876     0.1715 </r>
       <r>    -8.4230     2.7009     0.2877 </r>
       <r>    -8.3799     3.7228     0.4478 </r>
       <r>    -8.3369     4.6813     0.6492 </r>
       <r>    -8.2939     5.3703     0.8802 </r>
       <r>    -8.2509     5.6202     1.1219 </r>
       <r>    -8.2079     5.3659     1.3528 </r>
       <r>    -8.1649     4.6737     1.5538 </r>
       <r>    -8.1218     3.7137     1.7135 </r>
       <r>    -8.0788     2.6921     1.8293 </r>
       <r>    -8.0358     1.7803     1.9059 </r>
       <r>    -7.9928     1.0741     1.9521 </r>
       <r>    -7.9498     0.5915     1.9776 </r>
       <r>    -7.9068     0.2981     1.9904 </r>
       <r>    -7.8638     0.1401     1.9964 </r>
       <r>    -7.8207     0.0693     1.9994 </r>
       <r>    -7.7777     0.0562     2.0018 </r>
       <r>    -7.7347     0.0942     2.0059 </r>
       <r>    -7.6917     0.2011     2.0145 </r>
       <r>    -7.6487     0.4162     2.0324 </r>
       <r>    -7.6057     0.7926     2.0665 </r>
       <r>    -7.5627     1.3788     2.1258 </r>
       <r>    -7.5196     2.1885     2.2200 </r>
       <r>    -7.4766     3.1692     2.3563 </r>
       <r>    -7.4336     4.1866     2.5364 </r>
       <r>    -7.3906     5.0456     2.7534 </r>
       <r>    -7.3476     5.5474     2.9920 </r>
       <r>    -7.3046     5.5642     3.2314 </r>
       <r>    -7.2615     5.0915     3.4504 </r>
       <r>    -7.2185     4.2503     3.6332 </r>
       <r>    -7.1755     3.2368     3.7724 </r>
       <r>    -7.1325     2.2488     3.8692 </r>
       <r>    -7.0895     1.4253     3.9305 </r>
       <r>    -7.0465     0.8241     3.9659 </r>
       <r>    -7.0035     0.4347     3.9846 </r>
       <r>    -6.9604     0.2092     3.9936 </r>
       <r>    -6.9174     0.0918     3.9976 </r>
       <r>    -6.8744     0.0368     3.9991 </r>
       <r>    -6.8314     0.0134     3.9997 </r>
       <r>    -6.7884     0.0045     3.9999 </r>
       <r>    -6.7454     0.0014     4.0000 </r>
       <r>    -6.7024     0.0004     4.0000 </r>
       <r>    -6.6593     0.0001     4.0000 </r>
       <r>    -6.6163     0.0000     4.0000 </r>
       <r>    -6.5733     0.0000     4.0000 </r>
       <r>    -6.5303     0.0000     4.0000 </r>
       <r>    -6.4873     0.0000     4.0000 </r>
       <r>    -6.4443     0.0000     4.0000 </r>
       <r>    -6.4013     0.0000     4.0000 </r>
       <r>    -6.3582     0.0000     4.0000 </r>
       <r>    -6.3152     0.0000     4.0000 </r>
       <r>    -6.2722     0.0000     4.0000 </r>
       <r>    -6.2292     0.0000     4.0000 </r>
       <r>    -6.1862     0.0000     4.0000 </r>
       <r>    -6.1432     0.0000     4.0000 </r>
       <r>    -6.1001     0.0000     4.0000 </r>
       <r>    -6.0571     0.0000     4.0000 </r>
       <r>    -6.0141     0.0000     4.0000 </r>
       <r>    -5.9711     0.0000     4.0000 </r>
       <r>    -5.9281     0.0000     4.0000 </r>
       <r>    -5.8851     0.0000     4.0000 </r>
       <r>    -5.8421     0.0000     4.0000 </r>
       <r>    -5.7990     0.0000     4.0000 </r>
       <r>    -5.7560     0.0000     4.0000 </r>
       <r>    -5.7130     0.0000     4.0000 </r>
       <r>    -5.6700     0.0000     4.0000 </r>
       <r>    -5.6270     0.0000     4.0000 </r>
       <r>    -5.5840     0.0000     4.0000 </r>
       <r>    -5.5410     0.0000     4.0000 </r>
       <r>    -5.4979     0.0000     4.0000 </r>
       <r>    -5.4549     0.0000     4.0000 </r>
       <r>    -5.4119     0.0000     4.0000 </r>
       <r>    -5.3689     0.0000     4.0000 </r>
       <r>    -5.3259     0.0000     4.0000 </r>
       <r>    -5.2829     0.0000     4.0000 </r>
       <r>    -5.2399     0.0000     4.0000 </r>
       <r>    -5.1968     0.0000     4.0000 </r>
       <r>    -5.1538     0.0000     4.0000 </r>
       <r>    -5.1108     0.0000     4.0000 </r>
       <r>    -5.0678     0.0000     4.0000 </r>
       <r>    -5.0248     0.0000     4.0000 </r>
       <r>    -4.9818     0.0000     4.0000 </r>
       <r>    -4.9387     0.0000     4.0000 </r>
       <r>    -4.8957     0.0000     4.0000 </r>
       <r>    -4.8527     0.0000     4.0000 </r>
       <r>    -4.8097     0.0000     4.0000 </r>
       <r>    -4.7667     0.0000     4.0000 </r>
       <r>    -4.7237     0.0000     4.0000 </r>
       <r>    -4.6807     0.0000     4.0000 </r>
       <r>    -4.6376     0.0000     4.0000 </r>
       <r>    -4.5946     0.0000     4.0000 </r>
       <r>    -4.5516     0.0000     4.0000 </r>
       <r>    -4.5086     0.0000     4.0000 </r>
       <r>    -4.4656     0.0000     4.0000 </r>
       <r>    -4.4226     0.0000     4.0000 </r>
       <r>    -4.3796     0.0000     4.0000 </r>
       <r>    -4.3365     0.0000     4.0000 </r>
       <r>    -4.2935     0.0000     4.0000 </r>
       <r>    -4.2505     0.0000     4.0000 </r>
       <r>    -4.2075     0.0000     4.0000 </r>
       <r>    -4.1645     0.0000     4.0000 </r>
       <r>    -4.1215     0.0000     4.0000 </r>
       <r>    -4.0784     0.0000     4.0000 </r>
       <r>    -4.0354     0.0000     4.0000 </r>
       <r>    -3.9924     0.0000     4.0000 </r>
       <r>    -3.9494     0.0000     4.0000 </r>
       <r>    -3.9064     0.0000     4.0000 </r>
       <r>    -3.8634     0.0000     4.0000 </r>
       <r>    -3.8204     0.0000     4.0000 </r>
       <r>    -3.7773     0.0000     4.0000 </r>
       <r>    -3.7343     0.0000     4.0000 </r>
       <r>    -3.6913     0.0000     4.0000 </r>
       <r>    -3.6483     0.0000     4.0000 </r>
       <r>    -3.6053     0.0000     4.0000 </r>
       <r>    -3.5623     0.0000     4.0000 </r>
       <r>    -3.5193     0.0000     4.0000 </r>
       <r>    -3.4762     0.0000     4.0000 </r>
       <r>    -3.4332     0.0000     4.0000 </r>
       <r>    -3.3902     0.0000     4.0000 </r>
       <r>    -3.3472     0.0000     4.0000 </r>
       <r>    -3.3042     0.0000     4.0000 </r>
       <r>    -3.2612     0.0000     4.0000 </r>
       <r>    -3.2182     0.0000     4.0000 </r>
       <r>    -3.1751     0.0000     4.0000 </r>
       <r>    -3.1321     0.0000     4.0000 </r>
       <r>    -3.0891     0.0000     4.0000 </r>
       <r>    -3.0461     0.0000     4.0000 </r>
       <r>    -3.0031     0.0000     4.0000 </r>
       <r>    -2.9601     0.0000     4.0000 </r>
       <r>    -2.9170     0.0000     4.0000 </r>
       <r>    -2.8740     0.0000     4.0000 </r>
       <r>    -2.8310     0.0000     4.0000 </r>
       <r>    -2.7880     0.0000     4.0000 </r>
       <r>    -2.7450     0.0000     4.0000 </r>
       <r>    -2.7020     0.0000     4.0000 </r>
       <r>    -2.6590     0.0000     4.0000 </r>
       <r>    -2.6159     0.0000     4.0000 </r>
       <r>    -2.5729     0.0000     4.0000 </r>
       <r>    -2.5299     0.0000     4.0000 </r>
       <r>    -2.4869     0.0000     4.0000 </r>
       <r>    -2.4439     0.0000     4.0000 </r>
       <r>    -2.4009     0.0000     4.0000 </r>
       <r>    -2.3579     0.0000     4.0000 </r>
       <r>    -2.3148     0.0000     4.0000 </r>
       <r>    -2.2718     0.0000     4.0000 </r>
       <r>    -2.2288     0.0000     4.0000 </r>
       <r>    -2.1858     0.0000     4.0000 </r>
       <r>    -2.1428     0.0002     4.0000 </r>
       <r>    -2.0998     0.0008     4.0000 </r>
       <r>    -2.0568     0.0028     4.0002 </r>
       <r>    -2.0137     0.0092     4.0006 </r>
       <r>    -1.9707     0.0275     4.0017 </r>
       <r>    -1.9277     0.0752     4.0050 </r>
       <r>    -1.8847     0.1874     4.0130 </r>
       <r>    -1.8417     0.4260     4.0314 </r>
       <r>    -1.7987     0.8835     4.0694 </r>
       <r>    -1.7556     1.6713     4.1413 </r>
       <r>    -1.7126     2.8842     4.2653 </r>
       <r>    -1.6696     4.5409     4.4607 </r>
       <r>    -1.6266     6.5219     4.7412 </r>
       <r>    -1.5836     8.5455     5.1088 </r>
       <r>    -1.5406    10.2149     5.5482 </r>
       <r>    -1.4976    11.1393     6.0273 </r>
       <r>    -1.4545    11.0819     6.5040 </r>
       <r>    -1.4115    10.0577     6.9366 </r>
       <r>    -1.3685     8.3275     7.2948 </r>
       <r>    -1.3255     6.2902     7.5654 </r>
       <r>    -1.2825     4.3345     7.7519 </r>
       <r>    -1.2395     2.7248     7.8691 </r>
       <r>    -1.1965     1.5627     7.9363 </r>
       <r>    -1.1534     0.8176     7.9715 </r>
       <r>    -1.1104     0.3902     7.9882 </r>
       <r>    -1.0674     0.1699     7.9956 </r>
       <r>    -1.0244     0.0675     7.9985 </r>
       <r>    -0.9814     0.0245     7.9995 </r>
       <r>    -0.9384     0.0081     7.9999 </r>
       <r>    -0.8954     0.0025     8.0000 </r>
       <r>    -0.8523     0.0009     8.0000 </r>
       <r>    -0.8093     0.0010     8.0000 </r>
       <r>    -0.7663     0.0029     8.0002 </r>
       <r>    -0.7233     0.0090     8.0006 </r>
       <r>    -0.6803     0.0254     8.0016 </r>
       <r>    -0.6373     0.0656     8.0045 </r>
       <r>    -0.5942     0.1546     8.0111 </r>
       <r>    -0.5512     0.3328     8.0254 </r>
       <r>    -0.5082     0.6532     8.0535 </r>
       <r>    -0.4652     1.1699     8.1039 </r>
       <r>    -0.4222     1.9114     8.1861 </r>
       <r>    -0.3792     2.8489     8.3086 </r>
       <r>    -0.3362     3.8738     8.4752 </r>
       <r>    -0.2931     4.8053     8.6819 </r>
       <r>    -0.2501     5.4380     8.9159 </r>
       <r>    -0.2071     5.6142     9.1574 </r>
       <r>    -0.1641     5.2877     9.3848 </r>
       <r>    -0.1211     4.5434     9.5802 </r>
       <r>    -0.0781     3.5614     9.7334 </r>
       <r>    -0.0351     2.5468     9.8430 </r>
       <r>     0.0080     1.6616     9.9145 </r>
       <r>     0.0510     0.9895     9.9570 </r>
       <r>     0.0940     0.5392     9.9802 </r>
       <r>     0.1370     0.2734     9.9920 </r>
       <r>     0.1800     0.1418     9.9981 </r>
       <r>     0.2230     0.1063    10.0026 </r>
       <r>     0.2661     0.1546    10.0093 </r>
       <r>     0.3091     0.3032    10.0223 </r>
       <r>     0.3521     0.5931    10.0479 </r>
       <r>     0.3951     1.0746    10.0941 </r>
       <r>     0.4381     1.7804    10.1707 </r>
       <r>     0.4811     2.6921    10.2865 </r>
       <r>     0.5241     3.7137    10.4462 </r>
       <r>     0.5672     4.6737    10.6472 </r>
       <r>     0.6102     5.3659    10.8781 </r>
       <r>     0.6532     5.6202    11.1198 </r>
       <r>     0.6962     5.3703    11.3508 </r>
       <r>     0.7392     4.6813    11.5522 </r>
       <r>     0.7822     3.7228    11.7123 </r>
       <r>     0.8252     2.7009    11.8285 </r>
       <r>     0.8683     1.7876    11.9054 </r>
       <r>     0.9113     1.0793    11.9518 </r>
       <r>     0.9543     0.5945    11.9774 </r>
       <r>     0.9973     0.2987    11.9902 </r>
       <r>     1.0403     0.1369    11.9961 </r>
       <r>     1.0833     0.0573    11.9986 </r>
       <r>     1.1263     0.0218    11.9995 </r>
       <r>     1.1694     0.0076    11.9999 </r>
       <r>     1.2124     0.0024    12.0000 </r>
       <r>     1.2554     0.0007    12.0000 </r>
       <r>     1.2984     0.0002    12.0000 </r>
       <r>     1.3414     0.0000    12.0000 </r>
       <r>     1.3844     0.0000    12.0000 </r>
       <r>     1.4275     0.0000    12.0000 </r>
       <r>     1.4705     0.0000    12.0000 </r>
       <r>     1.5135     0.0000    12.0000 </r>
       <r>     1.5565     0.0000    12.0000 </r>
       <r>     1.5995     0.0000    12.0000 </r>
       <r>     1.6425     0.0000    12.0000 </r>
       <r>     1.6855     0.0000    12.0000 </r>
       <r>     1.7286     0.0000    12.0000 </r>
       <r>     1.7716     0.0000    12.0000 </r>
       <r>     1.8146     0.0000    12.0000 </r>
       <r>     1.8576     0.0000    12.0000 </r>
       <r>     1.9006     0.0000    12.0000 </r>
       <r>     1.9436     0.0000    12.0000 </r>
       <r>     1.9866     0.0000    12.0000 </r>
       <r>     2.0297     0.0000    12.0000 </r>
       <r>     2.0727     0.0000    12.0000 </r>
       <r>     2.1157     0.0000    12.0000 </r>
       <r>     2.1587     0.0000    12.0000 </r>
       <r>     2.2017     0.0000    12.0000 </r>
       <r>     2.2447     0.0000    12.0000 </r>
       <r>     2.2877     0.0000    12.0000 </r>
       <r>     2.3308     0.0000    12.0000 </r>
       <r>     2.3738     0.0000    12.0000 </r>
       <r>     2.4168     0.0000    12.0000 </r>
       <r>     2.4598     0.0000    12.0000 </r>
       <r>     2.5028     0.0000    12.0000 </r>
       <r>     2.5458     0.0000    12.0000 </r>
       <r>     2.5889     0.0000    12.0000 </r>
       <r>     2.6319     0.0000    12.0000 </r>
      </set>
     </set>
    </array>
   </total>
  </dos>
 </calculation>
 <structure name="finalpos" >
  <crystal>
   <varray name="basis" >
    <v>      10.38339473       0.00000000       0.00000000 </v>
    <v>       0.00000000      10.26228087      -0.00000000 </v>
    <v>      -0.00000000      -0.00000000      10.26228087 </v>
   </varray>
   <i name="volume">   1093.52107577 </i>
   <varray name="rec_basis" >
    <v>       0.09630762      -0.00000000       0.00000000 </v>
    <v>      -0.00000000       0.09744422       0.00000000 </v>
    <v>      -0.00000000       0.00000000       0.09744422 </v>
   </varray>
  </crystal>
  <varray name="positions" >
   <v>       0.29016045       0.16101695       0.16101695 </v>
   <v>       0.03187344       0.16101695       0.16101695 </v>
   <v>       0.16101695       0.16101695       0.16101695 </v>
  </varray>
 </structure>
</modeling>
