<?xml version="1.0" encoding="ISO-8859-1"?>
<modeling>
 <generator>
  <i name="program" type="string">vasp </i>
  <i name="version" type="string">6.2.1  </i>
  <i name="subversion" type="string">16May21 (build Dec 20 2021 17:15:01) gamma-only                       parallel </i>
  <i name="platform" type="string">LinuxGNU </i>
  <i name="date" type="string">2026 02 02 </i>
  <i name="time" type="string">13:58:36 </i>
 </generator>
 <incar>
  <i type="int" name="IBRION">     2</i>
  <i type="int" name="NSW">     5</i>
  <i type="int" name="ISIF">     3</i>
  <i type="int" name="ISMEAR">     0</i>
 </incar>
 <primitive_cell>
  <structure name="primitive_cell" >
   <crystal>
    <varray name="basis" >
     <v>       3.32500005       0.00000000       0.00000000 </v>
     <v>       0.00000000       3.32500005       0.00000000 </v>
     <v>       0.00000000       0.00000000       3.32500005 </v>
    </varray>
    <i name="volume">     36.75995471 </i>
    <varray name="rec_basis" >
     <v>       0.30075188       0.00000000       0.00000000 </v>
     <v>       0.00000000       0.30075188       0.00000000 </v>
     <v>       0.00000000       0.00000000       0.30075188 </v>
    </varray>
   </crystal>
   <varray name="positions" >
    <v>       0.89999998       0.50000000       0.50000000 </v>
    <v>       0.09999999       0.50000000       0.50000000 </v>
    <v>       0.50000000       0.50000000       0.50000000 </v>
   </varray>
  </structure>
  <varray name="primitive_index" >
   <v type="int" >        1 </v>
   <v type="int" >        2 </v>
   <v type="int" >        3 </v>
  </varray>
 </primitive_cell>
 <kpoints>
  <generation param="Monkhorst-Pack">
   <v type="int" name="divisions">       1        1        1 </v>
   <v name="usershift">      0.00000000       0.00000000       0.00000000 </v>
   <v name="genvec1">      1.00000000       0.00000000       0.00000000 </v>
   <v name="genvec2">      0.00000000       1.00000000       0.00000000 </v>
   <v name="genvec3">      0.00000000       0.00000000       1.00000000 </v>
   <v name="shift">      0.00000000       0.00000000       0.00000000 </v>
  </generation>
  <varray name="kpointlist" >
   <v>       0.00000000       0.00000000       0.00000000 </v>
  </varray>
  <varray name="weights" >
   <v>       1.00000000 </v>
  </varray>
 </kpoints>
 <parameters>
  <separator name="general" >
   <i type="string" name="SYSTEM">unknown system</i>
   <i type="logical" name="LCOMPAT"> F  </i>
  </separator>
  <separator name="electronic" >
   <i type="string" name="PREC">normal</i>
   <i name="ENMAX">    250.00000000</i>
   <i name="ENAUG">    527.98500000</i>
   <i name="EDIFF">      0.00010000</i>
   <i type="int" name="IALGO">    38</i>
   <i type="int" name="IWAVPR">    11</i>
   <i type="int" name="NBANDS">     6</i>
   <i type="int" name="NBANDSLOW">    -1</i>
   <i type="int" name="NBANDSHIGH">    -1</i>
   <i name="NELECT">      4.00000000</i>
   <i type="int" name="TURBO">     0</i>
   <i type="int" name="IRESTART">     0</i>
   <i type="int" name="NREBOOT">     0</i>
   <i type="int" name="NMIN">     0</i>
   <i name="EREF">      0.00000000</i>
   <separator name="electronic smearing" >
    <i type="int" name="ISMEAR">     0</i>
    <i name="SIGMA">      0.20000000</i>
    <i name="KSPACING">      0.50000000</i>
    <i type="logical" name="KGAMMA"> T  </i>
    <i type="logical" name="KBLOWUP"> T  </i>
   </separator>
   <separator name="electronic projectors" >
    <i type="logical" name="LREAL"> F  </i>
    <v name="ROPT">      0.00000000      0.00000000</v>
    <i type="int" name="LMAXPAW">  -100</i>
    <i type="int" name="LMAXMIX">     2</i>
    <i type="logical" name="NLSPLINE"> F  </i>
   </separator>
   <separator name="electronic startup" >
    <i type="int" name="ISTART">     1</i>
    <i type="int" name="ICHARG">     0</i>
    <i type="int" name="INIWAV">     1</i>
   </separator>
   <separator name="electronic spin" >
    <i type="int" name="ISPIN">     1</i>
    <i type="logical" name="LNONCOLLINEAR"> F  </i>
    <v name="MAGMOM">      1.00000000      1.00000000      1.00000000</v>
    <i name="NUPDOWN">     -1.00000000</i>
    <i type="logical" name="LSORBIT"> F  </i>
    <v name="SAXIS">      0.00000000      0.00000000      1.00000000</v>
    <i type="logical" name="LSPIRAL"> F  </i>
    <v name="QSPIRAL">      0.00000000      0.00000000      0.00000000</v>
    <i type="logical" name="LZEROZ"> F  </i>
   </separator>
   <separator name="electronic exchange-correlation" >
    <i type="logical" name="LASPH"> F  </i>
    <i type="logical" name="LMETAGGA"> F  </i>
   </separator>
   <separator name="electronic convergence" >
    <i type="int" name="NELM">    60</i>
    <i type="int" name="NELMDL">     0</i>
    <i type="int" name="NELMIN">     2</i>
    <i name="ENINI">    250.00000000</i>
    <separator name="electronic convergence detail" >
     <i type="logical" name="LDIAG"> T  </i>
     <i type="logical" name="LSUBROT"> F  </i>
     <i name="WEIMIN">      0.00100000</i>
     <i name="EBREAK">      0.00000417</i>
     <i name="DEPER">      0.30000000</i>
     <i type="int" name="NRMM">     4</i>
     <i name="TIME">      0.40000000</i>
    </separator>
   </separator>
   <separator name="electronic mixer" >
    <i name="AMIX">      0.40000000</i>
    <i name="BMIX">      1.00000000</i>
    <i name="AMIN">      0.10000000</i>
    <i name="AMIX_MAG">      1.60000000</i>
    <i name="BMIX_MAG">      1.00000000</i>
    <separator name="electronic mixer details" >
     <i type="int" name="IMIX">     4</i>
     <i type="logical" name="MIXFIRST"> F  </i>
     <i type="int" name="MAXMIX">   -45</i>
     <i name="WC">    100.00000000</i>
     <i type="int" name="INIMIX">     1</i>
     <i type="int" name="MIXPRE">     1</i>
     <i type="int" name="MREMOVE">     5</i>
    </separator>
   </separator>
   <separator name="electronic dipolcorrection" >
    <i type="logical" name="LDIPOL"> F  </i>
    <i type="logical" name="LMONO"> F  </i>
    <i type="int" name="IDIPOL">     0</i>
    <i name="EPSILON">      1.00000000</i>
    <v name="DIPOL">   -100.00000000   -100.00000000   -100.00000000</v>
    <i name="EFIELD">      0.00000000</i>
   </separator>
  </separator>
  <separator name="grids" >
   <i type="int" name="NGX">    14</i>
   <i type="int" name="NGY">    14</i>
   <i type="int" name="NGZ">    14</i>
   <i type="int" name="NGXF">    28</i>
   <i type="int" name="NGYF">    28</i>
   <i type="int" name="NGZF">    28</i>
   <i type="logical" name="ADDGRID"> F  </i>
  </separator>
  <separator name="ionic" >
   <i type="int" name="NSW">     5</i>
   <i type="int" name="IBRION">     2</i>
   <i type="int" name="MDALGO">     0</i>
   <i type="int" name="ISIF">     3</i>
   <i name="PSTRESS">      0.00000000</i>
   <i name="EDIFFG">      0.00100000</i>
   <i type="int" name="NFREE">     1</i>
   <i name="POTIM">      0.50000000</i>
   <i name="SMASS">     -3.00000000</i>
   <i name="SCALEE">      1.00000000</i>
  </separator>
  <separator name="ionic md" >
   <i name="TEBEG">      0.00010000</i>
   <i name="TEEND">      0.00010000</i>
   <i type="int" name="NBLOCK">     1</i>
   <i type="int" name="KBLOCK">     5</i>
   <i type="int" name="NPACO">   256</i>
   <i name="APACO">     16.00000000</i>
  </separator>
  <separator name="symmetry" >
   <i type="int" name="ISYM">     2</i>
   <i name="SYMPREC">      0.00001000</i>
  </separator>
  <separator name="dos" >
   <i type="int" name="LORBIT">     0</i>
   <v name="RWIGS">     -1.00000000     -1.00000000</v>
   <i type="int" name="NEDOS">   301</i>
   <i name="EMIN">     10.00000000</i>
   <i name="EMAX">    -10.00000000</i>
   <i name="EFERMI">      0.00000000</i>
  </separator>
  <separator name="writing" >
   <i type="int" name="NWRITE">     2</i>
   <i type="logical" name="LWAVE"> T  </i>
   <i type="logical" name="LDOWNSAMPLE"> F  </i>
   <i type="logical" name="LCHARG"> T  </i>
   <i type="logical" name="LPARD"> F  </i>
   <i type="logical" name="LVTOT"> F  </i>
   <i type="logical" name="LVHAR"> F  </i>
   <i type="logical" name="LELF"> F  </i>
   <i type="logical" name="LOPTICS"> F  </i>
   <v name="STM">      0.00000000      0.00000000      0.00000000      0.00000000      0.00000000      0.00000000      0.00000000</v>
  </separator>
  <separator name="performance" >
   <i type="int" name="NPAR">     1</i>
   <i type="int" name="NSIM">     4</i>
   <i type="int" name="NBLK">    -1</i>
   <i type="logical" name="LPLANE"> T  </i>
   <i type="logical" name="LSCALAPACK"> T  </i>
   <i type="logical" name="LSCAAWARE"> F  </i>
   <i type="logical" name="LSCALU"> F  </i>
   <i type="logical" name="LASYNC"> F  </i>
   <i type="logical" name="LORBITALREAL"> F  </i>
  </separator>
  <separator name="miscellaneous" >
   <i type="int" name="IDIOT">     3</i>
   <i type="int" name="PHON_NSTRUCT">    -1</i>
   <i type="logical" name="LMUSIC"> F  </i>
   <v name="POMASS">      1.00000000      9.01300000</v>
   <v name="DARWINR">      0.00000000      0.00000000</v>
   <v name="DARWINV">      1.00000000      1.00000000</v>
   <i type="logical" name="LCORR"> T  </i>
  </separator>
  <i type="logical" name="GGA_COMPAT"> T  </i>
  <i type="logical" name="LBERRY"> F  </i>
  <i type="int" name="ICORELEVEL">     0</i>
  <i type="logical" name="LDAU"> F  </i>
  <i type="int" name="I_CONSTRAINED_M">     0</i>
  <separator name="electronic exchange-correlation" >
   <i type="string" name="GGA">--</i>
   <i type="int" name="VOSKOWN">     0</i>
   <i type="logical" name="LHFCALC"> F  </i>
   <i type="string" name="PRECFOCK"></i>
   <i type="logical" name="LSYMGRAD"> F  </i>
   <i type="logical" name="LHFONE"> F  </i>
   <i type="logical" name="LRHFCALC"> F  </i>
   <i type="logical" name="LTHOMAS"> F  </i>
   <i type="logical" name="LMODELHF"> F  </i>
   <i type="logical" name="LFOCKACE"> F  </i>
   <i name="ENCUT4O">     -1.00000000</i>
   <i type="int" name="EXXOEP">     0</i>
   <i type="int" name="FOURORBIT">     0</i>
   <i name="AEXX">      0.00000000</i>
   <i name="HFALPHA">      0.00000000</i>
   <i name="MCALPHA">      0.00000000</i>
   <i name="ALDAX">      1.00000000</i>
   <i name="AGGAX">      1.00000000</i>
   <i name="ALDAC">      1.00000000</i>
   <i name="AGGAC">      1.00000000</i>
   <i type="int" name="NKREDX">     1</i>
   <i type="int" name="NKREDY">     1</i>
   <i type="int" name="NKREDZ">     1</i>
   <i type="logical" name="SHIFTRED"> F  </i>
   <i type="logical" name="ODDONLY"> F  </i>
   <i type="logical" name="EVENONLY"> F  </i>
   <i type="int" name="LMAXFOCK">     0</i>
   <i type="int" name="NMAXFOCKAE">     0</i>
   <i type="logical" name="LFOCKAEDFT"> F  </i>
   <i name="HFSCREEN">      0.00000000</i>
   <i name="HFSCREENC">      0.00000000</i>
   <i type="int" name="NBANDSGWLOW">     0</i>
  </separator>
  <separator name="vdW DFT" >
   <i type="logical" name="LUSE_VDW"> F  </i>
   <i name="Zab_VDW">     -0.84910000</i>
   <i name="PARAM1">      0.12340000</i>
   <i name="PARAM2">      1.00000000</i>
   <i name="PARAM3">      0.00000000</i>
  </separator>
  <separator name="model GW" >
   <i type="int" name="MODEL_GW">     0</i>
   <i name="MODEL_EPS0">      7.35199094</i>
   <i name="MODEL_ALPHA">      1.00000000</i>
  </separator>
  <separator name="linear response parameters" >
   <i type="logical" name="LEPSILON"> F  </i>
   <i type="logical" name="LRPA"> F  </i>
   <i type="logical" name="LNABLA"> F  </i>
   <i type="logical" name="LVEL"> F  </i>
   <i type="int" name="KINTER">     0</i>
   <i name="CSHIFT">      0.10000000</i>
   <i name="OMEGAMAX">     -1.00000000</i>
   <i name="DEG_THRESHOLD">      0.00200000</i>
   <i name="RTIME">     -0.10000000</i>
   <i name="WPLASMAI">      0.00000000</i>
   <v name="DFIELD">      0.00000000      0.00000000      0.00000000</v>
   <v name="WPLASMA">      0.00000000      0.00000000      0.00000000      0.00000000      0.00000000      0.00000000      0.00000000      0.00000000      0.00000000</v>
  </separator>
  <separator name="orbital magnetization" >
   <i type="logical" name="NUCIND"> F  </i>
   <v name="MAGPOS">      0.00000000      0.00000000      0.00000000</v>
   <i type="logical" name="LNICSALL"> T  </i>
   <i type="logical" name="ORBITALMAG"> F  </i>
   <i type="logical" name="LMAGBLOCH"> F  </i>
   <i type="logical" name="LCHIMAG"> F  </i>
   <i type="logical" name="LGAUGE"> T  </i>
   <i type="int" name="MAGATOM">     0</i>
   <v name="MAGDIPOL">      0.00000000      0.00000000      0.00000000</v>
   <v name="AVECCONST">      0.00000000      0.00000000      0.00000000</v>
  </separator>
  <separator name="response functions" >
   <i type="logical" name="LFINITE_TEMPERATURE"> F  </i>
   <i type="logical" name="LADDER"> F  </i>
   <i type="logical" name="LRPAFORCE"> F  </i>
   <i type="logical" name="LFXC"> F  </i>
   <i type="logical" name="LHARTREE"> T  </i>
   <i type="int" name="IBSE">     0</i>
   <v type="int" name="KPOINT">    -1     0     0     0</v>
   <i type="logical" name="LTCTC"> F  </i>
   <i type="logical" name="LTCTE"> F  </i>
   <i type="logical" name="LTETE"> F  </i>
   <i type="logical" name="LTRIPLET"> F  </i>
   <i type="logical" name="LFXCEPS"> F  </i>
   <i type="logical" name="LFXHEG"> F  </i>
   <i type="int" name="NATURALO">     2</i>
   <i type="logical" name="LHOLEGF"> F  </i>
   <i type="logical" name="L2ORDER"> F  </i>
   <i type="logical" name="LDMP1"> F  </i>
   <i type="logical" name="LMP2LT"> F  </i>
   <i type="logical" name="LSMP2LT"> F  </i>
   <i type="logical" name="LGWLF"> F  </i>
   <i name="ENCUTGW">     -2.00000000</i>
   <i name="ENCUTGWSOFT">     -2.00000000</i>
   <i name="ENCUTLF">     -1.00000000</i>
   <i type="logical" name="LESF_SPLINES"> F  </i>
   <i type="int" name="LMAXMP2">    -1</i>
   <i name="SCISSOR">      0.00000000</i>
   <i type="int" name="NOMEGA">     0</i>
   <i type="int" name="NOMEGAR">     0</i>
   <i type="int" name="NBANDSGW">    -1</i>
   <i type="int" name="NBANDSO">    -1</i>
   <i type="int" name="NBANDSV">    -1</i>
   <i type="int" name="NELM">     1</i>
   <i type="int" name="NELMHF">     1</i>
   <i type="int" name="DIM">     3</i>
   <i type="int" name="IESPILON">     4</i>
   <i type="int" name="ANTIRES">     0</i>
   <i name="OMEGAMAX">    -30.00000000</i>
   <i name="OMEGAMIN">    -30.00000000</i>
   <i name="OMEGATL">   -200.00000000</i>
   <i type="int" name="OMEGAGRID">     0</i>
   <i name="CSHIFT">     -0.10000000</i>
   <i type="logical" name="LSELFENERGY"> F  </i>
   <i type="logical" name="LSPECTRAL"> F  </i>
   <i type="logical" name="LSPECTRALGW"> F  </i>
   <i type="logical" name="LSINGLES"> F  </i>
   <i type="logical" name="LFERMIGW"> F  </i>
   <i type="logical" name="ODDONLYGW"> F  </i>
   <i type="logical" name="EVENONLYGW"> F  </i>
   <i type="int" name="NKREDLFX">     1</i>
   <i type="int" name="NKREDLFY">     1</i>
   <i type="int" name="NKREDLFZ">     1</i>
   <i type="int" name="MAXMEM">  2800</i>
   <i type="int" name="TELESCOPE">     0</i>
   <i type="int" name="NTAUPAR">    -1</i>
   <i type="int" name="NOMEGAPAR">    -1</i>
   <i name="DAMP_NEWTON">      0.80000001</i>
   <i name="LAMBDA">      1.00000000</i>
  </separator>
  <separator name="External order field" >
   <i name="OFIELD_KAPPA">      0.00000000</i>
   <v name="OFIELD_K">      0.00000000      0.00000000      0.00000000</v>
   <i name="OFIELD_Q6_NEAR">      0.00000000</i>
   <i name="OFIELD_Q6_FAR">      0.00000000</i>
   <i name="OFIELD_A">      0.00000000</i>
  </separator>
 </parameters>
 <atominfo>
  <atoms>       3 </atoms>
  <types>       2 </types>
  <array name="atoms" >
   <dimension dim="1">ion</dimension>
   <field type="string">element</field>
   <field type="int">atomtype</field>
   <set>
    <rc><c>H </c><c>   1</c></rc>
    <rc><c>H </c><c>   1</c></rc>
    <rc><c>Be</c><c>   2</c></rc>
   </set>
  </array>
  <array name="atomtypes" >
   <dimension dim="1">type</dimension>
   <field type="int">atomspertype</field>
   <field type="string">element</field>
   <field>mass</field>
   <field>valence</field>
   <field type="string">pseudopotential</field>
   <set>
    <rc><c>   2</c><c>H </c><c>      1.00000000</c><c>      1.00000000</c><c>  PAW_PBE H 15Jun2001                   </c></rc>
    <rc><c>   1</c><c>Be</c><c>      9.01300000</c><c>      2.00000000</c><c>  PAW_PBE Be_GW 04Mar2008               </c></rc>
   </set>
  </array>
 </atominfo>
 <structure name="initialpos" >
  <crystal>
   <varray name="basis" >
    <v>       3.32500005       0.00000000       0.00000000 </v>
    <v>       0.00000000       3.32500005       0.00000000 </v>
    <v>       0.00000000       0.00000000       3.32500005 </v>
   </varray>
   <i name="volume">     36.75995471 </i>
   <varray name="rec_basis" >
    <v>       0.30075188       0.00000000       0.00000000 </v>
    <v>       0.00000000       0.30075188       0.00000000 </v>
    <v>       0.00000000       0.00000000       0.30075188 </v>
   </varray>
  </crystal>
  <varray name="positions" >
   <v>       0.89999998       0.50000000       0.50000000 </v>
   <v>       0.09999999       0.50000000       0.50000000 </v>
   <v>       0.50000000       0.50000000       0.50000000 </v>
  </varray>
 </structure>
 <calculation>
  <scstep>
   <time name="dav">    0.00    0.00</time>
   <time name="total">    0.03    0.49</time>
   <energy>
    <i name="alphaZ">      2.73421077 </i>
    <i name="ewald">    -25.69146594 </i>
    <i name="hartreedc">    -22.57212003 </i>
    <i name="XCdc">      9.32653071 </i>
    <i name="pawpsdc">    136.29891958 </i>
    <i name="pawaedc">   -135.84974228 </i>
    <i name="eentropy">     -0.00008723 </i>
    <i name="bandstr">    -22.20941858 </i>
    <i name="atom">     52.32552977 </i>
    <i name="e_fr_energy">     -5.63764323 </i>
    <i name="e_wo_entrp">     -5.63755600 </i>
    <i name="e_0_energy">     -5.63759962 </i>
   </energy>
  </scstep>
  <scstep>
   <time name="dav">    0.00    0.02</time>
   <time name="total">    0.03    0.07</time>
   <energy>
    <i name="e_fr_energy">     -3.95780339 </i>
    <i name="e_wo_entrp">     -3.92516386 </i>
    <i name="e_0_energy">     -3.94148362 </i>
   </energy>
  </scstep>
  <scstep>
   <time name="dav">    0.00    0.00</time>
   <time name="total">    0.03    0.03</time>
   <energy>
    <i name="e_fr_energy">     -4.07118118 </i>
    <i name="e_wo_entrp">     -4.05815659 </i>
    <i name="e_0_energy">     -4.06466888 </i>
   </energy>
  </scstep>
  <scstep>
   <time name="dav">    0.00    0.00</time>
   <time name="total">    0.03    0.03</time>
   <energy>
    <i name="e_fr_energy">     -3.58244568 </i>
    <i name="e_wo_entrp">     -3.50174770 </i>
    <i name="e_0_energy">     -3.54209669 </i>
   </energy>
  </scstep>
  <scstep>
   <time name="dav">    0.00    0.00</time>
   <time name="total">    0.03    0.03</time>
   <energy>
    <i name="e_fr_energy">     -3.37263176 </i>
    <i name="e_wo_entrp">     -3.21596374 </i>
    <i name="e_0_energy">     -3.29429775 </i>
   </energy>
  </scstep>
  <scstep>
   <time name="dav">    0.00    0.00</time>
   <time name="total">    0.03    0.03</time>
   <energy>
    <i name="e_fr_energy">     -3.24521094 </i>
    <i name="e_wo_entrp">     -3.04897155 </i>
    <i name="e_0_energy">     -3.14709124 </i>
   </energy>
  </scstep>
  <scstep>
   <time name="dav">    0.00    0.00</time>
   <time name="total">    0.03    0.03</time>
   <energy>
    <i name="e_fr_energy">     -3.23511122 </i>
    <i name="e_wo_entrp">     -3.02814629 </i>
    <i name="e_0_energy">     -3.13162876 </i>
   </energy>
  </scstep>
  <scstep>
   <time name="dav">    0.00    0.00</time>
   <time name="total">    0.03    0.03</time>
   <energy>
    <i name="e_fr_energy">     -3.22742915 </i>
    <i name="e_wo_entrp">     -3.00175551 </i>
    <i name="e_0_energy">     -3.11459233 </i>
   </energy>
  </scstep>
  <scstep>
   <time name="dav">    0.00    0.00</time>
   <time name="total">    0.03    0.03</time>
   <energy>
    <i name="e_fr_energy">     -3.22517268 </i>
    <i name="e_wo_entrp">     -3.00012302 </i>
    <i name="e_0_energy">     -3.11264785 </i>
   </energy>
  </scstep>
  <scstep>
   <time name="dav">    0.00    0.00</time>
   <time name="total">    0.03    0.03</time>
   <energy>
    <i name="e_fr_energy">     -3.22435873 </i>
    <i name="e_wo_entrp">     -3.00146443 </i>
    <i name="e_0_energy">     -3.11291158 </i>
   </energy>
  </scstep>
  <scstep>
   <time name="dav">    0.00    0.00</time>
   <time name="total">    0.02    0.02</time>
   <energy>
    <i name="alphaZ">      2.73421077 </i>
    <i name="ewald">    -25.69146594 </i>
    <i name="hartreedc">    -18.76135077 </i>
    <i name="XCdc">      8.87688941 </i>
    <i name="pawpsdc">     73.60131499 </i>
    <i name="pawaedc">    -73.09068201 </i>
    <i name="eentropy">     -0.22342931 </i>
    <i name="bandstr">    -22.99537496 </i>
    <i name="atom">     52.32552977 </i>
    <i name="e_fr_energy">     -3.22435805 </i>
    <i name="e_wo_entrp">     -3.00092874 </i>
    <i name="e_0_energy">     -3.11264340 </i>
   </energy>
  </scstep>
  <structure>
   <crystal>
    <varray name="basis" >
     <v>       3.32500005       0.00000000       0.00000000 </v>
     <v>       0.00000000       3.32500005       0.00000000 </v>
     <v>       0.00000000       0.00000000       3.32500005 </v>
    </varray>
    <i name="volume">     36.75995471 </i>
    <varray name="rec_basis" >
     <v>       0.30075188       0.00000000       0.00000000 </v>
     <v>       0.00000000       0.30075188       0.00000000 </v>
     <v>       0.00000000       0.00000000       0.30075188 </v>
    </varray>
   </crystal>
   <varray name="positions" >
    <v>       0.89999998       0.50000000       0.50000000 </v>
    <v>       0.09999999       0.50000000       0.50000000 </v>
    <v>       0.50000000       0.50000000       0.50000000 </v>
   </varray>
  </structure>
  <varray name="forces" >
   <v>      -3.96178509      -0.00000000      -0.00000000 </v>
   <v>       3.96178509       0.00000000       0.00000000 </v>
   <v>       0.00000000      -0.00000000       0.00000000 </v>
  </varray>
  <varray name="stress" >
   <v>     890.17413914       0.00000000       0.00000000 </v>
   <v>       0.00000000    -195.66747179       0.00000000 </v>
   <v>       0.00000000       0.00000000    -195.66747179 </v>
  </varray>
  <energy>
   <i name="e_fr_energy">     -3.22435805 </i>
   <i name="e_wo_entrp">     -3.00092874 </i>
   <i name="e_0_energy">     -3.11264340 </i>
  </energy>
  <time name="totalsc">    0.41    7.74</time>
 </calculation>
 <calculation>
  <scstep>
   <time name="dav">    0.00    0.00</time>
   <time name="total">    0.03    0.03</time>
   <energy>
    <i name="alphaZ">      2.39098082 </i>
    <i name="ewald">    -39.57638187 </i>
    <i name="hartreedc">    -13.48002681 </i>
    <i name="XCdc">      8.40617667 </i>
    <i name="pawpsdc">     73.57705657 </i>
    <i name="pawaedc">    -73.06625370 </i>
    <i name="eentropy">     -0.00000000 </i>
    <i name="bandstr">    -22.28951224 </i>
    <i name="atom">     52.32552977 </i>
    <i name="e_fr_energy">    -11.71243078 </i>
    <i name="e_wo_entrp">    -11.71243078 </i>
    <i name="e_0_energy">    -11.71243078 </i>
   </energy>
  </scstep>
  <scstep>
   <time name="dav">    0.00    0.00</time>
   <time name="total">    0.03    0.03</time>
   <energy>
    <i name="e_fr_energy">    -10.76922414 </i>
    <i name="e_wo_entrp">    -10.76922414 </i>
    <i name="e_0_energy">    -10.76922414 </i>
   </energy>
  </scstep>
  <scstep>
   <time name="dav">    0.00    0.00</time>
   <time name="total">    0.03    0.03</time>
   <energy>
    <i name="e_fr_energy">    -10.68907647 </i>
    <i name="e_wo_entrp">    -10.68907647 </i>
    <i name="e_0_energy">    -10.68907647 </i>
   </energy>
  </scstep>
  <scstep>
   <time name="dav">    0.00    0.00</time>
   <time name="total">    0.03    0.03</time>
   <energy>
    <i name="e_fr_energy">    -10.71133433 </i>
    <i name="e_wo_entrp">    -10.71133433 </i>
    <i name="e_0_energy">    -10.71133433 </i>
   </energy>
  </scstep>
  <scstep>
   <time name="dav">    0.00    0.00</time>
   <time name="total">    0.03    0.03</time>
   <energy>
    <i name="e_fr_energy">    -10.71365168 </i>
    <i name="e_wo_entrp">    -10.71365168 </i>
    <i name="e_0_energy">    -10.71365168 </i>
   </energy>
  </scstep>
  <scstep>
   <time name="dav">    0.00    0.00</time>
   <time name="total">    0.03    0.03</time>
   <energy>
    <i name="e_fr_energy">    -10.71394581 </i>
    <i name="e_wo_entrp">    -10.71394581 </i>
    <i name="e_0_energy">    -10.71394581 </i>
   </energy>
  </scstep>
  <scstep>
   <time name="dav">    0.00    0.00</time>
   <time name="total">    0.02    0.02</time>
   <energy>
    <i name="alphaZ">      2.39098082 </i>
    <i name="ewald">    -39.57638187 </i>
    <i name="hartreedc">    -10.17942624 </i>
    <i name="XCdc">      7.82919925 </i>
    <i name="pawpsdc">     43.35944836 </i>
    <i name="pawaedc">    -42.77152187 </i>
    <i name="eentropy">     -0.00000000 </i>
    <i name="bandstr">    -24.09177375 </i>
    <i name="atom">     52.32552977 </i>
    <i name="e_fr_energy">    -10.71394553 </i>
    <i name="e_wo_entrp">    -10.71394553 </i>
    <i name="e_0_energy">    -10.71394553 </i>
   </energy>
  </scstep>
  <structure>
   <crystal>
    <varray name="basis" >
     <v>       4.41704610       0.00000000       0.00000000 </v>
     <v>       0.00000000       3.08495950       0.00000000 </v>
     <v>       0.00000000       0.00000000       3.08495950 </v>
    </varray>
    <i name="volume">     42.03691775 </i>
    <varray name="rec_basis" >
     <v>       0.22639564       0.00000000      -0.00000000 </v>
     <v>      -0.00000000       0.32415336      -0.00000000 </v>
     <v>      -0.00000000      -0.00000000       0.32415336 </v>
    </varray>
   </crystal>
   <varray name="positions" >
    <v>       0.84251816       0.50000000       0.50000000 </v>
    <v>       0.15748181       0.50000000       0.50000000 </v>
    <v>       0.50000000       0.50000000       0.50000000 </v>
   </varray>
  </structure>
  <varray name="forces" >
   <v>      -4.27366373      -0.00000000      -0.00000000 </v>
   <v>       4.27366373      -0.00000000       0.00000000 </v>
   <v>      -0.00000000       0.00000000      -0.00000000 </v>
  </varray>
  <varray name="stress" >
   <v>      73.40159681      -0.00000000       0.00000000 </v>
   <v>       0.00000000    -365.74136386       0.00000000 </v>
   <v>      -0.00000000       0.00000000    -365.74136386 </v>
  </varray>
  <energy>
   <i name="e_fr_energy">    -10.71394553 </i>
   <i name="e_wo_entrp">    -10.71394553 </i>
   <i name="e_0_energy">    -10.71394553 </i>
  </energy>
  <time name="totalsc">    0.26    3.80</time>
 </calculation>
 <calculation>
  <scstep>
   <time name="dav">    0.00    0.00</time>
   <time name="total">    0.03    0.03</time>
   <energy>
    <i name="alphaZ">      2.34156695 </i>
    <i name="ewald">    -40.63802919 </i>
    <i name="hartreedc">     -9.97220008 </i>
    <i name="XCdc">      7.81943514 </i>
    <i name="pawpsdc">     43.35512002 </i>
    <i name="pawaedc">    -42.76713860 </i>
    <i name="eentropy">     -0.00000000 </i>
    <i name="bandstr">    -24.08392511 </i>
    <i name="atom">     52.32552977 </i>
    <i name="e_fr_energy">    -11.61964110 </i>
    <i name="e_wo_entrp">    -11.61964110 </i>
    <i name="e_0_energy">    -11.61964110 </i>
   </energy>
  </scstep>
  <scstep>
   <time name="dav">    0.00    0.00</time>
   <time name="total">    0.03    0.03</time>
   <energy>
    <i name="e_fr_energy">    -11.55697882 </i>
    <i name="e_wo_entrp">    -11.55697882 </i>
    <i name="e_0_energy">    -11.55697882 </i>
   </energy>
  </scstep>
  <scstep>
   <time name="dav">    0.00    0.00</time>
   <time name="total">    0.03    0.03</time>
   <energy>
    <i name="e_fr_energy">    -11.54467709 </i>
    <i name="e_wo_entrp">    -11.54467709 </i>
    <i name="e_0_energy">    -11.54467709 </i>
   </energy>
  </scstep>
  <scstep>
   <time name="dav">    0.00    0.00</time>
   <time name="total">    0.03    0.03</time>
   <energy>
    <i name="e_fr_energy">    -11.54489396 </i>
    <i name="e_wo_entrp">    -11.54489396 </i>
    <i name="e_0_energy">    -11.54489396 </i>
   </energy>
  </scstep>
  <scstep>
   <time name="dav">    0.00    0.00</time>
   <time name="total">    0.02    0.02</time>
   <energy>
    <i name="alphaZ">      2.34156695 </i>
    <i name="ewald">    -40.63802919 </i>
    <i name="hartreedc">     -8.63214234 </i>
    <i name="XCdc">      7.61876015 </i>
    <i name="pawpsdc">     38.20380506 </i>
    <i name="pawaedc">    -37.59934045 </i>
    <i name="eentropy">     -0.00000000 </i>
    <i name="bandstr">    -25.16500946 </i>
    <i name="atom">     52.32552977 </i>
    <i name="e_fr_energy">    -11.54485951 </i>
    <i name="e_wo_entrp">    -11.54485951 </i>
    <i name="e_0_energy">    -11.54485951 </i>
   </energy>
  </scstep>
  <structure>
   <crystal>
    <varray name="basis" >
     <v>       4.69297750       0.00000000       0.00000000 </v>
     <v>       0.00000000       3.02430755       0.00000000 </v>
     <v>       0.00000000       0.00000000       3.02430755 </v>
    </varray>
    <i name="volume">     42.92401895 </i>
    <varray name="rec_basis" >
     <v>       0.21308434       0.00000000      -0.00000000 </v>
     <v>      -0.00000000       0.33065420      -0.00000000 </v>
     <v>      -0.00000000      -0.00000000       0.33065420 </v>
    </varray>
   </crystal>
   <varray name="positions" >
    <v>       0.83158489       0.50000000       0.50000000 </v>
    <v>       0.16841508       0.50000000       0.50000000 </v>
    <v>       0.50000000       0.50000000       0.50000000 </v>
   </varray>
  </structure>
  <varray name="forces" >
   <v>      -3.65333297       0.00000000       0.00000000 </v>
   <v>       3.65333297      -0.00000000      -0.00000000 </v>
   <v>      -0.00000000       0.00000000       0.00000000 </v>
  </varray>
  <varray name="stress" >
   <v>     -16.50828296      -0.00000000      -0.00000000 </v>
   <v>      -0.00000000    -385.40085633      -0.00000000 </v>
   <v>      -0.00000000      -0.00000000    -385.40085633 </v>
  </varray>
  <energy>
   <i name="e_fr_energy">    -11.54485951 </i>
   <i name="e_wo_entrp">    -11.54485951 </i>
   <i name="e_0_energy">    -11.54485951 </i>
  </energy>
  <time name="totalsc">    0.21    2.47</time>
 </calculation>
e="stress" >
   <v>      73.40159681      -0.00000000       0.00000000 </v>
   <v>       0.00000000    -365.74136386       0.00000000 </v>
   <v>      -0.00000000       0.00000000    -365.74136386 </v>
  </varray>
  <energy>
   <i name="e_fr_energy">    -10.71394553 </i>
   <i name="e_wo_entrp">    -10.71394553 </i>
 <calculation>
  <scstep>
   <time name="dav">    0.00    0.00</time>
   <time name="total">    0.03    0.03</time>
   <e <calculation>
  <scstep>
   <time name="dav">    0.00    0.00</time>
   <time name="total">    0.03    0.03</time>
   <energy>
    <i name="alphaZ">      2.27394275 </i>
    <i name="ewald">    -41.33564595 </i>
    <i name="hartreedc">     -8.90875771 </i>
    <i name="XCdc">      7.66302935 </i>
    <i name="pawpsdc">     38.23519277 </i>
    <i name="pawaedc">    -37.63078398 </i>
    <i name="eentropy">     -0.00000000 </i>
    <i name="bandstr">    -25.79132986 </i>
    <i name="atom">     52.32552977 </i>
    <i name="e_fr_energy">    -13.16882286 </i>
    <i name="e_wo_entrp">    -13.16882286 </i>
    <i name="e_0_energy">    -13.16882286 </i>
   </energy>
  </scstep>
  <scstep>
   <time name="dav">    0.00    0.00</time>
   <time name="total">    0.03    0.03</time>
   <energy>
    <i name="e_fr_energy">    -12.91464625 </i>
    <i name="e_wo_entrp">    -12.91464625 </i>
    <i name="e_0_energy">    -12.91464625 </i>
   </energy>
  </scstep>
  <scstep>
   <time name="dav">    0.00    0.00</time>
   <time name="total">    0.03    0.03</time>
   <energy>
    <i name="e_fr_energy">    -12.87100217 </i>
    <i name="e_wo_entrp">    -12.87100217 </i>
    <i name="e_0_energy">    -12.87100217 </i>
   </energy>
  </scstep>
  <scstep>
   <time name="dav">    0.00    0.00</time>
   <time name="total">    0.03    0.03</time>
   <energy>
    <i name="e_fr_energy">    -12.87258091 </i>
    <i name="e_wo_entrp">    -12.87258091 </i>
    <i name="e_0_energy">    -12.87258091 </i>
   </energy>
  </scstep>
  <scstep>
   <time name="dav">    0.00    0.00</time>
   <time name="total">    0.03    0.03</time>
   <energy>
    <i name="e_fr_energy">    -12.87196241 </i>
    <i name="e_wo_entrp">    -12.87196241 </i>
    <i name="e_0_energy">    -12.87196241 </i>
   </energy>
  </scstep>
  <scstep>
   <time name="dav">    0.00    0.00</time>
   <time name="total">    0.03    0.03</time>
   <energy>
    <i name="alphaZ">      2.27394275 </i>
    <i name="ewald">    -41.33564595 </i>
    <i name="hartreedc">     -7.16795167 </i>
    <i name="XCdc">      7.35508070 </i>
    <i name="pawpsdc">     31.90134844 </i>
    <i name="pawaedc">    -31.27344564 </i>
    <i name="eentropy">     -0.00000000 </i>
    <i name="bandstr">    -26.95082518 </i>
    <i name="atom">     52.32552977 </i>
    <i name="e_fr_energy">    -12.87196679 </i>
    <i name="e_wo_entrp">    -12.87196679 </i>
    <i name="e_0_energy">    -12.87196679 </i>
   </energy>
  </scstep>
  <structure>
   <crystal>
    <varray name="basis" >
     <v>       5.24484030       0.00000000       0.00000000 </v>
     <v>       0.00000000       2.90300364       0.00000000 </v>
     <v>       0.00000000       0.00000000       2.90300364 </v>
    </varray>
    <i name="volume">     44.20052522 </i>
    <varray name="rec_basis" >
     <v>       0.19066357       0.00000000      -0.00000000 </v>
     <v>      -0.00000000       0.34447080      -0.00000000 </v>
     <v>      -0.00000000      -0.00000000       0.34447080 </v>
    </varray>
   </crystal>
   <varray name="positions" >
    <v>       0.81100401       0.50000000       0.50000000 </v>
    <v>       0.18899596       0.50000000       0.50000000 </v>
    <v>       0.50000000       0.50000000       0.50000000 </v>
   </varray>
  </structure>
  <varray name="forces" >
   <v>      -2.82743105       0.00000000      -0.00000000 </v>
   <v>       2.82743105      -0.00000000       0.00000000 </v>
   <v>       0.00000000       0.00000000      -0.00000000 </v>
  </varray>
  <varray name="stress" >
   <v>    -126.29101870   <calculation>
  <scstep>
   <time name="dav">    0.00    0.00</time>
   <time name="total">    0.03    0.03</time>
   <energy>
    <i name="alphaZ">      2.27394275 </i>
    <i name="ewald">    -41.33564595 </i>
    <i name="hartreedc">     -8.90875771 </i>
    <i name="XCdc">      7.66302935 </i>
    <i name="pawpsdc">     38.23519277 </i>
    <i name="pawaedc">    -37.63078398 </i>
    <i name=" <calculation>
  <scstep>
   <time name="dav">    0.00    0.00</time>
   <time name="total">    0.03    0.05</time>
   <energy>
    <i name="alphaZ">      2.27394275 </i>
    <i name="ewald">    -41.33564595 </i>
    <i name="hartreedc">     -8.90875771 </i>
    <i name="XCdc">      7.66302935 </i>
    <i name="pawpsdc">     38.23519277 </i>
    <i name="pawaedc">    -37.63078398 </i>
    <i name="eentropy">     -0.00000000 </i>
    <i name="bandstr">    -25.79132986 </i>
    <i name="atom">     52.32552977 </i>
    <i name="e_fr_energy">    -13.16882286 </i>
    <i name="e_wo_entrp">    -13.16882286 </i>
    <i name="e_0_energy">    -13.16882286 </i>
   </energy>
  </scstep>
  <scstep>
   <time name="dav">    0.00    0.00</time>
   <time name="total">    0.03    0.05</time>
   <energy>
    <i name="e_fr_energy">    -12.91464625 </i>
    <i name="e_wo_entrp">    -12.91464625 </i>
    <i name="e_0_energy">    -12.91464625 </i>
   </energy>
  </scstep>
  <scstep>
   <time name="dav">    0.00    0.00</time>
   <time name="total">    0.03    0.05</time>
   <energy>
    <i name="e_fr_energy">    -12.87100217 </i>
    <i name="e_wo_entrp">    -12.87100217 </i>
    <i name="e_0_energy">    -12.87100217 </i>
   </energy>
  </scstep>
  <scstep>
   <time name="dav">    0.00    0.00</time>
   <time name="total">    0.03    0.06</time>
   <energy>
    <i name="e_fr_energy">    -12.87258091 </i>
    <i name="e_wo_entrp">    -12.87258091 </i>
    <i name="e_0_energy">    -12.87258091 </i>
   </energy>
  </scstep>
  <scstep>
   <time name="dav">    0.00    0.00</time>
   <time name="total">    0.03    0.05</time>
   <energy>
    <i name="e_fr_energy">    -12.87196241 </i>
    <i name="e_wo_entrp">    -12.87196241 </i>
    <i name="e_0_energy">    -12.87196241 </i>
   </energy>
  </scstep>
  <scstep>
   <time name="dav">    0.00    0.00</time>
   <time name="total">    0.02    0.02</time>
   <energy>
    <i name="alphaZ">      2.27394275 </i>
    <i name="ewald">    -41.33564595 </i>
    <i name="hartreedc">     -7.16795167 </i>
    <i name="XCdc">      7.35508070 </i>
    <i name="pawpsdc">     31.90134844 </i>
    <i name="pawaedc">    -31.27344564 </i>
    <i name="eentropy">     -0.00000000 </i>
    <i name="bandstr">    -26.95082518 </i>
    <i name="atom">     52.32552977 </i>
    <i name="e_fr_energy">    -12.87196679 </i>
    <i name="e_wo_entrp">    -12.87196679 </i>
    <i name="e_0_energy">    -12.87196679 </i>
   </energy>
  </scstep>
  <structure>
   <crystal>
    <varray name="basis" >
     <v>       5.24484030       0.00000000       0.00000000 </v>
     <v>       0.00000000       2.90300364       0.00000000 </v>
     <v>       0.00000000       0.00000000       2.90300364 </v>
    </varray>
    <i name="volume">     44.20052522 </i>
    <varray name="rec_basis" >
     <v>       0.19066357       0.00000000      -0.00000000 </v>
     <v>      -0.00000000       0.34447080      -0.00000000 </v>
     <v>      -0.00000000      -0.00000000       0.34447080 </v>
    </varray>
   </crystal>
   <varray name="positions" >
    <v>       0.81100401       0.50000000       0.50000000 </v>
    <v>       0.18899596       0.50000000       0.50000000 </v>
    <v>       0.50000000       0.50000000       0.50000000 </v>
   </varray>
  </structure>
  <varray name="forces" >
   <v>      -2.82743105       0.00000000      -0.00000000 </v>
   <v>       2.82743105      -0.00000000       0.00000000 </v>
   <v>       0.00000000       0.00000000      -0.00000000 </v>
  </varray>
  <varray name="stress" >
   <v>    -126.29101870       0.00000000      -0.00000000 </v>
   <v>       0.00000000    -422.00815119      -0.00000000 </v>
   <v>      -0.00000000      -0.00000000    -422.00815119 </v>
  </varray>
  <energy>
   <i name="e_fr_energy">    -12.87196679 </i>
   <i name="e_wo_entrp">    -12.87196679 </i>
   <i name="e_0_energy">    -12.87196679 </i>
  </energy>
  <time name="totalsc">    0.23    3.73</time>
 </calculation>
eentropy">     -0.00000000 </i>
    <i name="bandstr">    -30.21050962 </i>
    <i name="atom">     52.32552977 </i>
    <i name="e_fr_energy">    -16.17693039   <i name="e_0_energy">    -15.03027225 </i>
  </energy>
  <time name="totalsc">    0.26    4.06</time>
  <eigenvalues>
   <array>
    <dimension dim="1">band</dimension>
    <dimension dim="2">kpoint</dimension>
    <dimension dim="3">spin</dimension>
    <field>eigene</field>
    <field>occ</field>
    <set>
     <set comment="spin 1">
      <set comment="kpoint 1">
       <r>   -8.6306    1.0000 </r>
       <r>   -6.2673    1.0000 </r>
       <r>   -2.2375    0.0000 </r>
       <r>    5.4454    0.0000 </r>
       <r>    6.9905    0.0000 </r>
       <r>    7.4105    0.0000 </r>
      </set>
     </set>
    </set>
   </array>
  </eigenvalues>
  <separator name="orbital magnetization" >
   <v name="MAGDIPOLOUT">      0.00000000      0.00000000      0.00000000</v>
  </separator>
  <dos>
   <i name="efermi">     -5.28628326 </i>
   <total>
    <array>
     <dimension dim="1">gridpoints</dimension>
     <dimension dim="2">spin</dimension>
     <field>energy</field>
     <field>total</field>
     <field>integrated</field>
     <set>
      <set comment="spin 1">
       <r>   -10.6306     0.0000     0.0000 </r>
       <r>   -10.5638     0.0000     0.0000 </r>
       <r>   -10.4970     0.0000     0.0000 </r>
       <r>   -10.4302     0.0000     0.0000 </r>
       <r>   -10.3634     0.0000     0.0000 </r>
       <r>   -10.2966     0.0000     0.0000 </r>
       <r>   -10.2298     0.0000     0.0000 </r>
       <r>   -10.1630     0.0000     0.0000 </r>
       <r>   -10.0962     0.0000     0.0000 </r>
       <r>   -10.0294     0.0000     0.0000 </r>
       <r>    -9.9626     0.0000     0.0000 </r>
       <r>    -9.8958     0.0000     0.0000 </r>
       <r>    -9.8290     0.0000     0.0000 </r>
       <r>    -9.7622     0.0000     0.0000 </r>
       <r>    -9.6954     0.0000     0.0000 </r>
       <r>    -9.6286     0.0000     0.0000 </r>
       <r>    -9.5618     0.0000     0.0000 </r>
       <r>    -9.4950     0.0000     0.0000 </r>
       <r>    -9.4281     0.0000     0.0000 </r>
       <r>    -9.3613     0.0000     0.0000 </r>
       <r>    -9.2945     0.0000     0.0000 </r>
       <r>    -9.2277     0.0003     0.0000 </r>
       <r>    -9.1609     0.0023     0.0002 </r>
       <r>    -9.0941     0.0130     0.0010 </r>
       <r>    -9.0273     0.0596     0.0050 </r>
       <r>    -8.9605     0.2190     0.0197 </r>
       <r>    -8.8937     0.6462     0.0628 </r>
       <r>    -8.8269     1.5313     0.1651 </r>
       <r>    -8.7601     2.9148     0.3598 </r>
       <r>    -8.6933     4.4565     0.6576 </r>
       <r>    -8.6265     5.4734     1.0232 </r>
       <r>    -8.5597     5.4001     1.3839 </r>
       <r>    -8.4929     4.2798     1.6699 </r>
       <r>    -8.4261     2.7247     1.8519 </r>
       <r>    -8.3593     1.3934     1.9450 </r>
       <r>    -8.2925     0.5723     1.9832 </r>
       <r>    -8.2257     0.1888     1.9958 </r>
       <r>    -8.1589     0.0500     1.9991 </r>
       <r>    -8.0921     0.0106     1.9999 </r>
       <r>    -8.0253     0.0018     2.0000 </r>
       <r>    -7.9585     0.0002     2.0000 </r>
       <r>    -7.8917     0.0000     2.0000 </r>
       <r>    -7.8249     0.0000     2.0000 </r>
       <r>    -7.7581     0.0000     2.0000 </r>
       <r>    -7.6913     0.0000     2.0000 </r>
       <r>    -7.6244     0.0000     2.0000 </r>
       <r>    -7.5576     0.0000     2.0000 </r>
       <r>    -7.4908     0.0000     2.0000 </r>
       <r>    -7.4240     0.0000     2.0000 </r>
       <r>    -7.3572     0.0000     2.0000 </r>
       <r>    -7.2904     0.0000     2   <i name="e_0_energy">    -15.03027225 </i>
  </energy>
  <time name="totalsc">    0.26    3.08</time>
  <eigenvalues>
   <array>
    <dimension dim="1">band</dimension>
    <dimension dim="2">kpoint</dimension>
    <dimension dim="3">spin</dimension>
    <field>eigene</field>
    <field>occ</field>
    <set>
     <set comment="spin 1">
      <set comment="kpoint 1">
       <r>   -8.6306    1.0000 </r>
       <r>   -6.2673    1.0000 </r>
       <r>   -2.2375    0.0000 </r>
       <r>    5.4454    0.0000 </r>
       <r>    6.9905    0.0000 </r       <r>    -6.4888     1.1352     2.1173 </r>
       <r>    -6.4220     2.3467     2.2741 </r>
       <r>    -6.3552     3.8967     2.5344 </r>
       <r>    -6.2884     5.1975     2.8816 </r>
       <r>    -6.2216     5.5690     3.2537 </r>
       <r>    -6.1548     4.7934     3.5739 </r>
       <r>    -6.0880     3.3142     3.7953 </r>
       <r>    -6.0212     1.8407     3.9182 </r>
       <r>    -5.9544     0.8211     3.9731 </r>
       <r>    -5.8875     0.2942     3.9928 </r>
       <r>    -5.8207     0.0847     3.9984 </r>
       <r>    -5.7539     0.0196     3.9997 </r>
       <r>    -5.6871     0.0036     4.0000 </r>
       <r>    -5.6203     0.0005     4.0000 </r>
       <r>    -5.5535     0.0001     4.0000 </r>
       <r>    -5.4867     0.0000     4.0000 </r>
       <r>    -5.4199     0.0000     4.0000 </r>
       <r>    -5.3531     0.0000     4.0000 </r>
       <r>    -5.2863     0.0000     4.0000 </r>
       <r>    -5.2195     0.0000     4.0000 </r>
       <r>    -5.1527     0.0000     4.0000 </r>
       <r>    -5.0859     0.0000     4.0000 </r>
       <r>    -5.0191     0.0000     4.0000 </r>
       <r>    -4.9523     0.0000     4.0000 </r>
       <r>    -4.8855     0.0000     4.0000 </r>
       <r>    -4.8187     0.0000     4.0000 </r>
       <r>    -4.7519     0.0000     4.0000 </r>
       <r>    -4.6851     0.0000     4.0000 </r>
       <r>    -4.6183     0.0000     4.0000 </r>
       <r>    -4.5515     0.0000     4.0000 </r>
       <r>    -4.4847     0.0000     4.0000 </r>
       <r>    -4.4179     0.0000     4.0000 </r>
       <r>    -4.3511     0.0000     4.0000 </r>
       <r>    -4.2843     0.0000     4.0000 </r>
       <r>    -4.2175     0.0000     4.0000 </r>
       <r>    -4.1507     0.0000     4.0000 </r>
       <r>    -4.0838     0.0000     4.0000 </r>
       <r>    -4.0170     0.0000     4.0000 </r>
       <r>    -3.9502     0.0000     4.0000 </r>
       <r>    -3.8834     0.0000     4.0000 </r>
       <r>    -3.8166     0.0000     4.0000 </r>
       <r>    -3.7498     0.0000     4.0000 </r>
       <r>    -3.6830     0.0000     4.0000 </r>
       <r>    -3.6162     0.0000     4.0000 </r>
       <r>    -3.5494     0.0000     4.0000 </r>
       <r>    -3.4826     0.0000     4.0000 </r>
       <r>    -3.4158     0.0000     4.0000 </r>
       <r>    -3.3490     0.0000     4.0000 </r>
       <r>    -3.2822     0.0000     4.0000 </r>
       <r>    -3.2154     0.0000     4.0000 </r>
       <r>    -3.1486     0.0000     4.0000 </r>
       <r>    -3.0818     0.0000     4.0000 </r>
       <r>    -3.0150     0.0000     4.0000 </r>
       <r>    -2.9482     0.0000     4.0000 </r>
       <r>    -2.8814     0.0001     4.0000 </r>
       <r>    -2.8146     0.0006     4.0000 </r>
       <r>    -2.7478     0.0039     4.0003 </r>
       <r>    -2.6810     0.0210     4.0017 </r>
       <r>    -2.6142     0.0901     4.0077 </r>
       <r>    -2.5474     0.3100     4.0284 </r>
       <r>    -2.4806     0.8564     4.0856 </r>
       <r>    -2.4138     1.9004     4.2126 </r>
       <r>    -2.3470     3.3873     4.4389 </r>
       <r>    -2.2801     4.8499     4.7629 </r>
       <r>    -2.2133     5.5781     5.1355 </r>
       <r>    -2.1465     5.1537     5.4798 </r>
       <r>    -2.0797     3.8250     5.7353 </r>
       <r>    -2.0129     2.2804     5.8877 </r>
       <r>    -1.9461     1.0920     5.9606 </r>
       <r>    -1.8793     0.4200     5.9887 </r>
       <r>    -1.8125     0.1297     5.9973 </r>
       <r>    -1.7457     0.0322     5.9995 </r>
       <r>    -1.6789     0.0064          <r>   <i name="e_0_energy">    -15.03027225 </i>
  </energy>
  <time name="totalsc">    0.25    2.10</time>
  <eigenvalues>
   <array>
    <dimension dim="1">band</dimension>
    <dimension dim="2">kpoint</dimension>
    <dimension dim="3">spin</dimension>
    <field>eigene</field>
    <field>occ</field>
    <set>
     <set comment="spin 1">
      <set comment="kpoint 1">
       <r>   -8.6306    1.0000 </r>
       <r>   -6.2673    1.0000 </r>
       <r>   -2.2375    0.0000 </r>
       <r>    5.4454    0.0000 </r>
       <r>    6.9905    0.0000 </r>
       <r>    7.4105    0.0000 </r>
      </set>
     </set>
    </set>
   </array>
  </eigenvalues>
  <separator name="orbital magnetization" >
   <v name="MAGDIPOLOUT">      0.00000000      0.00000000      0.00000000</v>
  </separator>
  <dos>
   <i name="efermi">     -5.28628326 </i>
   <total>
    <array>
     <dimension dim="1">gridpoints</dimension>
     <dimension dim="2">spin</dimension>
     <field>energy</field>
     <field>total</field>
     <field>integrated</field>
     <set>
      <set comment="spin 1">
       <r>   -10.6306     0.0000     0.0000 </r>
       <r>   -10.5638     0.0000     0.0000 </r>
       <r>   -10.4970     0.0000     0.0000 </r>
       <r>   -10.4302     0.0000     0.0000 </r>
       <r>   -10.3634     0.0000     0.0000 </r>
       <r>   -10.2966     0.0000     0.0000 </r>
       <r>   -10.2298     0.0000     0.0000 </r>
       <r>   -10.1630     0.0000     0.0000 </r>
       <r>   -10.0962     0.0000     0.0000 </r>
       <r>   -10.0294     0.0000     0.0000 </r>
       <r>    -9.9626     0.0000     0.0000 </r>
       <r>    -9.8958     0.0000     0.0000 </r>
       <r>    -9.8290     0.0000     0.0000 </r>
       <r>    -9.7622     0.0000     0.0000 </r>
       <r>    -9.6954     0.0000     0.0000 </r>
       <r>    -9.6286     0.0000     0.0000 </r>
       <r>    -9.5618     0.0000     0.0000 </r>
       <r>    -9.4950     0.0000     0.0000 </r>
       <r>    -9.4281     0.0000     0.0000 </r>
       <r>    -9.3613     0.0000     0.0000 </r>
       <r>    -9.2945     0.0000     0.0000 </r>
       <r>    -9.2277     0.0003     0.0000 </r>
       <r>    -9.1609     0.0023     0.0002 </r>
       <r>    -9.0941     0.0130     0.0010 </r>
       <r>    -9.0273     0.0596     0.0050 </r>
       <r>    -8.9605     0.2190     0.0197 </r>
       <r>    -8.8937     0.6462     0.0628 </r>
       <r>    -8.8269     1.5313     0.1651 </r>
       <r>    -8.7601     2.9148     0.3598 </r>
       <r>    -8.6933     4.4565     0.6576 </r>
       <r>    -8.6265     5.4734     1.0232 </r>
       <r>    -8.5597     5.4001     1.3839 </r>
       <r>    -8.4929     4.2798     1.6699 </r>
       <r>    -8.4261     2.7247     1.8519 </r>
       <r>    -8.3593     1.3934     1.9450 </r>
       <r>    -8.2925     0.5723     1.9832 </r>
       <r>    -8.2257     0.1888     1.9958 </r>
       <r>    -8.1589     0.0500     1.9991 </r>
       <r>    -8.0921     0.0106     1.9999 </r>
       <r>    -8.0253     0.0018     2.0000 </r>
       <r>    -7.9585     0.0002     2.0000 </r>
       <r>    -7.8917     0.0000     2.0000 </r>
       <r>    -7.8249     0.0000     2.0000 </r>
       <r>    -7.7581     0.0000     2.0000 </r>
       <r>    -7.6913     0.0000     2.0000 </r>
       <r>    -7.6244     0.0000     2.0000 </r>
       <r>    -7.5576     0.0000     2.0000 </r>
       <r>    -7.4908     0.0000     2.0000 </r>
       <r>    -7.4240     0.0000     2.0000 </r>
       <r>    -7.3572     0.0000     2.0000 </r>
       <r>    -7.2904     0.0000     2.0000 </r>
       <r>    -7.2236     0.0000     2.0000 </r>
       <r>    -7.1568     0.0000     2.0000 </r>
       <r>    -7.0900     0.0000     2.0000 </r>
       <r>    -7.0232     0.0000     2.0000 </r>
       <r>    -6.9564     0.0000     2.0000 </r>
       <r>    -6.8896     0.0001     2.0000 </r>
       <r>    -6.8228     0.0011     2.0001 </r>
       <r>    -6.7560     0.0069     2.0005 </r>
       <r>    -6.6892     0.0345     2.0029 </r>
       <r>    -6.6224     0.1376     2.0120 </r>
       <r>    -6.5556     0.4411     2.0415 </r>
       <r>    -6.4888     1.1352     2.1173 </r>
       <r>    -6.4220     2.3467     2.2741 </r>
       <r>    -6.3552     3.8967     2.5344 </r>
       <r>    -6.2884     5.1975     2.8816 </r>
       <r>    -6.2216     5.5690     3.2537 </r>
       <r>    -6.1548     4.7934     3.5739 </r>
       <r>    -6.0880     3.3142     3.7953 </r>
       <r>    -6.0212     1.8407     3.9182 </r>
       <r>    -5.9544     0.8211     3.9731 </r>
       <r>    -5.8875     0.2942     3.9928 </r>
       <r>    -5.8207     0.0847     3.9984 </r>
       <r>    -5.7539     0.0196     3.9997 </r>
       <r>    -5.6871     0.0036     4.0000 </r>
       <r>    -5.6203     0.0005     4.0000 </r>
       <r>    -5.5535     0.0001     4.0000 </r>
       <r>    -5.4867     0.0000     4.0000 </r>
       <r>    -5.4199     0.0000     4.0000 </r>
       <r>    -5.3531     0.0000     4.0000 </r>
       <r>    -5.2863     0.0000     4.0000 </r>
       <r>    -5.2195     0.0000     4.0000 </r>
       <r>    -5.1527     0.0000     4.0000 </r>
       <r>    -5.0859     0.0000     4.0000 </r>
       <r>    -5.0191     0.0000     4.0000 </r>
       <r>    -4.9523     0.0000     4.0000 </r>
       <r>    -4.8855     0.0000     4.0000 </r>
       <r>    -4.8187     0.0000     4.0000 </r>
       <r>    -4.7519     0.0000     4.0000 </r>
       <r>    -4.6851     0.0000     4.0000 </r>
       <r>    -4.6183     0.0000     4.0000 </r>
       <r>    -4.5515     0.0000     4.0000 </r>
       <r>    -4.4847     0.0000     4.0000 </r>
       <r>    -4.4179     0.0000     4.0000 </r>
       <r>    -4.3511     0.0000     4.0000 </r>
       <r>    -4.2843     0.0000     4.0000 </r>
       <r>    -4.2175     0.0000     4.0000 </r>
       <r>    -4.1507     0.0000     4.0000 </r>
       <r>    -4.0838     0.0000     4.0000 </r>
       <r>    -4.0170     0.0000     4.0000 </r>
       <r>    -3.9502     0.0000     4.0000 </r>
       <r>    -3.8834     0.0000     4.0000 </r>
       <r>    -3.8166     0.0000     4.0000 </r>
       <r>    -3.7498     0.0000     4.0000 </r>
       <r>    -3.6830     0.0000     4.0000 </r>
       <r>    -3.6162     0.0000     4.0000 </r>
       <r>    -3.5494     0.0000     4.0000 </r>
       <r>    -3.4826     0.0000     4.0000 </r>
       <r>    -3.4158     0.0000     4.0000 </r>
       <r>    -3.3490     0.0000     4.0000 </r>
       <r>    -3.2822     0.0000     4.0000 </r>
       <r>    -3.2154     0.0000     4.0000 </r>
       <r>    -3.1486     0.0000     4.0000 </r>
       <r>    -3.0818     0.0000     4.0000 </r>
       <r>    -3.0150     0.0000     4.0000 </r>
       <r>    -2.9482     0.0000     4.0000 </r>
       <r>    -2.8814     0.0001     4.0000 </r>
       <r>    -2.8146     0.0006     4.0000 </r>
       <r>    -2.7478     0.0039     4.0003 </r>
       <r>    -2.6810     0.0210     4.0017 </r>
       <r>    -2.6142     0.0901     4.0077 </r>
       <r>    -2.5474     0.3100     4.0284 </r>
       <r>    -2.4806     0.8564     4.0856 </r>
       <r>    -2.4138     1.9004     4.2126 </r>
       <r>    -2.3470     3.3873     4.4389 </r>
       <r>    -2.2801     4.8499     4.7629 </r>
       <r>    -2.2133     5.5781     5.1355 </r>
       <r>    -2.1465     5.1537     5.4798 </r>
       <r>    -2.0797     3.8250     5.7353 </r>
       <r>    -2.0129     2.2804     5.8877 </r>
       <r>    -1.9461     1.0920     5.9606 </r>
       <r>    -1.8793     0.4200     5.9887 </r>
       <r>    -1.8125     0.1297     5.9973 </r>
       <r>    -1.7457     0.0322     5.9995 </r>
       <r>    -1.6789     0.0064     5.9999 </r>
       <r>    -1.6121     0.0010     6.0000 </r>
       <r>    -1.5453     0.0001     6.0000 </r>
       <r>    -1.4785     0.0000     6.0000 </r>
       <r>    -1.4117     0.0000     6.0000 </r>
       <r>    -1.3449     0.0000     6.0000 </r>
       <r>    -1.2781     0.0000     6.0000 </r>
       <r>    -1.2113     0.0000     6.0000 </r>
       <r>    -1.1445     0.0000     6.0000 </r>
       <r>    -1.0777     0.0000     6.0000 </r>
       <r>    -1.0109     0.0000     6.0000 </r>
       <r>    -0.9441     0.0000     6.0000 </r>
       <r>    -0.8773     0.0000     6.0000 </r>
       <r>    -0.8105     0.0000     6.0000 </r>
       <r>    -0.7437     0.0000     6.0000 </r>
       <r>    -0.6769     0.0000     6.0000 </r>
       <r>    -0.6101     0.0000     6.0000 </r>
       <r>    -0.5432     0.0000     6.0000 </r>
       <r>    -0.4764     0.0000     6.0000 </r>
       <r>    -0.4096     0.0000     6.0000 </r>
       <r>    -0.3428     0.0000     6.0000 </r>
       <r>    -0.2760     0.0000     6.0000 </r>
       <r>    -0.2092     0.0000     6.0000 </r>
       <r>    -0.1424     0.0000     6.0000 </r>
       <r>    -0.0756     0.0000     6.0000 </r>
       <r>    -0.0088     0.0000     6.0000 </r>
       <r>     0.0580     0.0000     6.0000 </r>
       <r>     0.1248     0.0000     6.0000 </r>
       <r>     0.1916     0.0000     6.0000 </r>
       <r>     0.2584     0.0000     6.0000 </r>
       <r>     0.3252     0.0000     6.0000 </r>
       <r>     0.3920     0.0000     6.0000 </r>
       <r>     0.4588     0.0000     6.0000 </r>
       <r>     0.5256     0.0000     6.0000 </r>
       <r>     0.5924     0.0000     6.0000 </r>
       <r>     0.6592     0.0000     6.0000 </r>
       <r>     0.7260     0.0000     6.0000 </r>
       <r>     0.7928     0.0000     6.0000 </r>
       <r>     0.8596     0.0000     6.0000 </r>
       <r>     0.9264     0.0000     6.0000 </r>
       <r>     0.9932     0.0000     6.0000 </r>
       <r>     1.0600     0.0000     6.0000 </r>
       <r>     1.1268     0.0000     6.0000 </r>
       <r>     1.1936     0.0000     6.0000 </r>
       <r>     1.2605     0.0000     6.0000 </r>
       <r>     1.3273     0.0000     6.0000 </r>
       <r>     1.3941     0.0000     6.0000 </r>
       <r>     1.4609     0.0000     6.0000 </r>
       <r>     1.5277     0.0000     6.0000 </r>
       <r>     1.5945     0.0000     6.0000 </r>
       <r>     1.6613     0.0000     6.0000 </r>
       <r>     1.7281     0.0000     6.0000 </r>
       <r>     1.7949     0.0000     6.0000 </r>
       <r>     1.8617     0.0000     6.0000 </r>
       <r>     1.9285     0.0000     6.0000 </r>
       <r>     1.9953     0.0000     6.0000 </r>
       <r>     2.0621     0.0000     6.0000 </r>
       <r>     2.1289     0.0000     6.0000 </r>
       <r>     2.1957     0.0000     6.0000 </r>
       <r>     2.2625     0.0000     6.0000 </r>
       <r>     2.3293     0.0000     6.0000 </r>
       <r>     2.3961     0.0000     6.0000 </r>
       <r>     2.4629     0.0000     6.0000 </r>
       <r>     2.5297     0.0000     6.0000 </r>
       <r>     2.5965     0.0000     6.0000 </r>
       <r>     2.6633     0.0000     6.0000 </r>
       <r>     2.7301     0.0000     6.0000 </r>
       <r>     2.7969     0.0000     6.0000 </r>
       <r>     2.8637     0.0000     6.0000 </r>
       <r>     2.9305     0.0000     6.0000 </r>
       <r>     2.9974     0.0000     6.0000 </r>
       <r>     3.0642     0.0000     6.0000 </r>
       <r>     3.1310     0.0000     6.0000 </r>
       <r>     3.1978     0.0000     6.0000 </r>
       <r>     3.2646     0.0000     6.0000 </r>
       <r>     3.3314     0.0000     6.0000 </r>
       <r>     3.3982     0.0000     6.0000 </r>
       <r>     3.4650     0.0000     6.0000 </r>
       <r>     3.5318     0.0000     6.0000 </r>
       <r>     3.5986     0.0000     6.0000 </r>
       <r>     3.6654     0.0000     6.0000 </r>
       <r>     3.7322     0.0000     6.0000 </r>
       <r>     3.7990     0.0000     6.0000 </r>
       <r>     3.8658     0.0000     6.0000 </r>
       <r>     3.9326     0.0000     6.0000 </r>
       <r>     3.9994     0.0000     6.0000 </r>
       <r>     4.0662     0.0000     6.0000 </r>
       <r>     4.1330     0.0000     6.0000 </r>
       <r>     4.1998     0.0000     6.0000 </r>
       <r>     4.2666     0.0000     6.0000 </r>
       <r>     4.3334     0.0000     6.0000 </r>
       <r>     4.4002     0.0000     6.0000 </r>
       <r>     4.4670     0.0000     6.0000 </r>
       <r>     4.5338     0.0000     6.0000 </r>
       <r>     4.6006     0.0000     6.0000 </r>
       <r>     4.6674     0.0000     6.0000 </r>
       <r>     4.7342     0.0000     6.0000 </r>
       <r>     4.8011     0.0001     6.0000 </r>
       <r>     4.8679     0.0006     6.0000 </r>
       <r>     4.9347     0.0039     6.0003 </r>
       <r>     5.0015     0.0208     6.0017 </r>
       <r>     5.0683     0.0893     6.0077 </r>
       <r>     5.1351     0.3076     6.0282 </r>
       <r>     5.2019     0.8510     6.0851 </r>
       <r>     5.2687     1.8914     6.2114 </r>
       <r>     5.3355     3.3764     6.4370 </r>
       <r>     5.4023     4.8416     6.7604 </r>
       <r>     5.4691     5.5769     7.1330 </r>
       <r>     5.5359     5.1604     7.4777 </r>
       <r>     5.6027     3.8357     7.7339 </r>
       <r>     5.6695     2.2902     7.8869 </r>
       <r>     5.7363     1.0984     7.9603 </r>
       <r>     5.8031     0.4231     7.9886 </r>
       <r>     5.8699     0.1309     7.9973 </r>
       <r>     5.9367     0.0325     7.9995 </r>
       <r>     6.0035     0.0065     7.9999 </r>
       <r>     6.0703     0.0010     8.0000 </r>
       <r>     6.1371     0.0001     8.0000 </r>
       <r>     6.2039     0.0000     8.0000 </r>
       <r>     6.2707     0.0000     8.0000 </r>
       <r>     6.3375     0.0001     8.0000 </r>
       <r>     6.4043     0.0005     8.0000 </r>
       <r>     6.4711     0.0031     8.0002 </r>
       <r>     6.5379     0.0170     8.0014 </r>
       <r>     6.6048     0.0750     8.0064 </r>
       <r>     6.6716     0.2657     8.0241 </r>
       <r>     6.7384     0.7563     8.0747 </r>
       <r>     6.8052     1.7289     8.1902 </r>
       <r>     6.8720     3.1754     8.4023 </r>
       <r>     6.9388     4.6908     8.7156 </r>
       <r>     7.0056     5.5943     9.0894 </r>
       <r>     7.0724     5.4648     9.4544 </r>
       <r>     7.1392     4.6055     9.7621 </r>
       <r>     7.2060     3.8700    10.0206 </r>
       <r>     7.2728     3.9463    10.2843 </r>
       <r>     7.3396     4.7638    10.6025 </r>
       <r>     7.4064     5.5541    10.9735 </r>
       <r>     7.4732     5.5128    11.3418 </r>
       <r>     7.5400     4.4646    11.6401 </r>
       <r>     7.6068     2.9161    11.8349 </r>
       <r>     7.6736     1.5315    11.9372 </r>
       <r>     7.7404     0.6462    11.9803 </r>
       <r>     7.8072     0.2190    11.9950 </r>
       <r>     7.8740     0.0596    11.9990 </r>
       <r>     7.9408     0.0130    11.9998 </r>
       <r>     8.0076     0.0023    12.0000 </r>
       <r>     8.0744     0.0003    12.0000 </r>
       <r>     8.1412     0.0000    12.0000 </r>
       <r>     8.2080     0.0000    12.0000 </r>
       <r>     8.2748     0.0000    12.0000 </r>
       <r>     8.3417     0.0000    12.0000 </r>
       <r>     8.4085     0.0000    12.0000 </r>
       <r>     8.4753     0.0000    12.0000 </r>
       <r>     8.5421     0.0000    12.0000 </r>
       <r>     8.6089     0.0000    12.0000 </r>
       <r>     8.6757     0.0000    12.0000 </r>
       <r>     8.7425     0.0000    12.0000 </r>
       <r>     8.8093     0.0000    12.0000 </r>
       <r>     8.8761     0.0000    12.0000 </r>
       <r>     8.9429     0.0000    12.0000 </r>
       <r>     9.0097     0.0000    12.0000 </r>
       <r>     9.0765     0.0000    12.0000 </r>
       <r>     9.1433     0.0000    12.0000 </r>
       <r>     9.2101     0.0000    12.0000 </r>
       <r>     9.2769     0.0000    12.0000 </r>
       <r>     9.3437     0.0000    12.0000 </r>
       <r>     9.4105     0.0000    12.0000 </r>
      </set>
     </set>
    </array>
   </total>
  </dos>
 </calculation>
 <structure name="finalpos" >
  <crystal>
   <varray name="basis" >
    <v>       6.34856591       0.00000000       0.00000000 </v>
    <v>       0.00000000       2.66039583       0.00000000 </v>
    <v>       0.00000000       0.00000000       2.66039583 </v>
   </varray>
   <i name="volume">     44.93328283 </i>
   <varray name="rec_basis" >
    <v>       0.15751589       0.00000000      -0.00000000 </v>
    <v>      -0.00000000       0.37588392      -0.00000000 </v>
    <v>      -0.00000000      -0.00000000       0.37588392 </v>
   </varray>
  </crystal>
  <varray name="positions" >
   <v>       0.77417331       0.50000000       0.50000000 </v>
   <v>       0.22582666       0.50000000       0.50000000 </v>
   <v>       0.50000000       0.50000000       0.50000000 </v>
  </varray>
 </structure>
</modeling>
