<?xml version="1.0" encoding="ISO-8859-1"?>
<modeling>
 <generator>
  <i name="program" type="string">vasp </i>
  <i name="version" type="string">6.2.1  </i>
  <i name="subversion" type="string">16May21 (build Dec 20 2021 17:15:01) gamma-only                       parallel </i>
  <i name="platform" type="string">LinuxGNU </i>
  <i name="date" type="string">2026 01 19 </i>
  <i name="time" type="string">14:02:32 </i>
 </generator>
 <incar>
  <i type="int" name="IBRION">     2</i>
  <i type="int" name="NSW">     5</i>
  <i type="int" name="ISMEAR">     0</i>
 </incar>
 <primitive_cell>
  <structure name="primitive_cell" >
   <crystal>
    <varray name="basis" >
     <v>       3.32500005       0.00000000       0.00000000 </v>
     <v>       0.00000000       3.32500005       0.00000000 </v>
     <v>       0.00000000       0.00000000       3.32500005 </v>
    </varray>
    <i name="volume">     36.75995471 </i>
    <varray name="rec_basis" >
     <v>       0.30075188       0.00000000       0.00000000 </v>
     <v>       0.00000000       0.30075188       0.00000000 </v>
     <v>       0.00000000       0.00000000       0.30075188 </v>
    </varray>
   </crystal>
   <varray name="positions" >
    <v>       0.89999998       0.50000000       0.50000000 </v>
    <v>       0.09999999       0.50000000       0.50000000 </v>
    <v>       0.50000000       0.50000000       0.50000000 </v>
   </varray>
  </structure>
  <varray name="primitive_index" >
   <v type="int" >        1 </v>
   <v type="int" >        2 </v>
   <v type="int" >        3 </v>
  </varray>
 </primitive_cell>
 <kpoints>
  <generation param="Monkhorst-Pack">
   <v type="int" name="divisions">       1        1        1 </v>
   <v name="usershift">      0.00000000       0.00000000       0.00000000 </v>
   <v name="genvec1">      1.00000000       0.00000000       0.00000000 </v>
   <v name="genvec2">      0.00000000       1.00000000       0.00000000 </v>
   <v name="genvec3">      0.00000000       0.00000000       1.00000000 </v>
   <v name="shift">      0.00000000       0.00000000       0.00000000 </v>
  </generation>
  <varray name="kpointlist" >
   <v>       0.00000000       0.00000000       0.00000000 </v>
  </varray>
  <varray name="weights" >
   <v>       1.00000000 </v>
  </varray>
 </kpoints>
 <parameters>
  <separator name="general" >
   <i type="string" name="SYSTEM">unknown system</i>
   <i type="logical" name="LCOMPAT"> F  </i>
  </separator>
  <separator name="electronic" >
   <i type="string" name="PREC">normal</i>
   <i name="ENMAX">    250.00000000</i>
   <i name="ENAUG">    527.98500000</i>
   <i name="EDIFF">      0.00010000</i>
   <i type="int" name="IALGO">    38</i>
   <i type="int" name="IWAVPR">    11</i>
   <i type="int" name="NBANDS">     6</i>
   <i type="int" name="NBANDSLOW">    -1</i>
   <i type="int" name="NBANDSHIGH">    -1</i>
   <i name="NELECT">      4.00000000</i>
   <i type="int" name="TURBO">     0</i>
   <i type="int" name="IRESTART">     0</i>
   <i type="int" name="NREBOOT">     0</i>
   <i type="int" name="NMIN">     0</i>
   <i name="EREF">      0.00000000</i>
   <separator name="electronic smearing" >
    <i type="int" name="ISMEAR">     0</i>
    <i name="SIGMA">      0.20000000</i>
    <i name="KSPACING">      0.50000000</i>
    <i type="logical" name="KGAMMA"> T  </i>
    <i type="logical" name="KBLOWUP"> T  </i>
   </separator>
   <separator name="electronic projectors" >
    <i type="logical" name="LREAL"> F  </i>
    <v name="ROPT">      0.00000000      0.00000000</v>
    <i type="int" name="LMAXPAW">  -100</i>
    <i type="int" name="LMAXMIX">     2</i>
    <i type="logical" name="NLSPLINE"> F  </i>
   </separator>
   <separator name="electronic startup" >
    <i type="int" name="ISTART">     0</i>
    <i type="int" name="ICHARG">     2</i>
    <i type="int" name="INIWAV">     1</i>
   </separator>
   <separator name="electronic spin" >
    <i type="int" name="ISPIN">     1</i>
    <i type="logical" name="LNONCOLLINEAR"> F  </i>
    <v name="MAGMOM">      1.00000000      1.00000000      1.00000000</v>
    <i name="NUPDOWN">     -1.00000000</i>
    <i type="logical" name="LSORBIT"> F  </i>
    <v name="SAXIS">      0.00000000      0.00000000      1.00000000</v>
    <i type="logical" name="LSPIRAL"> F  </i>
    <v name="QSPIRAL">      0.00000000      0.00000000      0.00000000</v>
    <i type="logical" name="LZEROZ"> F  </i>
   </separator>
   <separator name="electronic exchange-correlation" >
    <i type="logical" name="LASPH"> F  </i>
    <i type="logical" name="LMETAGGA"> F  </i>
   </separator>
   <separator name="electronic convergence" >
    <i type="int" name="NELM">    60</i>
    <i type="int" name="NELMDL">    -5</i>
    <i type="int" name="NELMIN">     2</i>
    <i name="ENINI">    250.00000000</i>
    <separator name="electronic convergence detail" >
     <i type="logical" name="LDIAG"> T  </i>
     <i type="logical" name="LSUBROT"> F  </i>
     <i name="WEIMIN">      0.00100000</i>
     <i name="EBREAK">      0.00000417</i>
     <i name="DEPER">      0.30000000</i>
     <i type="int" name="NRMM">     4</i>
     <i name="TIME">      0.40000000</i>
    </separator>
   </separator>
   <separator name="electronic mixer" >
    <i name="AMIX">      0.40000000</i>
    <i name="BMIX">      1.00000000</i>
    <i name="AMIN">      0.10000000</i>
    <i name="AMIX_MAG">      1.60000000</i>
    <i name="BMIX_MAG">      1.00000000</i>
    <separator name="electronic mixer details" >
     <i type="int" name="IMIX">     4</i>
     <i type="logical" name="MIXFIRST"> F  </i>
     <i type="int" name="MAXMIX">   -45</i>
     <i name="WC">    100.00000000</i>
     <i type="int" name="INIMIX">     1</i>
     <i type="int" name="MIXPRE">     1</i>
     <i type="int" name="MREMOVE">     5</i>
    </separator>
   </separator>
   <separator name="electronic dipolcorrection" >
    <i type="logical" name="LDIPOL"> F  </i>
    <i type="logical" name="LMONO"> F  </i>
    <i type="int" name="IDIPOL">     0</i>
    <i name="EPSILON">      1.00000000</i>
    <v name="DIPOL">   -100.00000000   -100.00000000   -100.00000000</v>
    <i name="EFIELD">      0.00000000</i>
   </separator>
  </separator>
  <separator name="grids" >
   <i type="int" name="NGX">    14</i>
   <i type="int" name="NGY">    14</i>
   <i type="int" name="NGZ">    14</i>
   <i type="int" name="NGXF">    28</i>
   <i type="int" name="NGYF">    28</i>
   <i type="int" name="NGZF">    28</i>
   <i type="logical" name="ADDGRID"> F  </i>
  </separator>
  <separator name="ionic" >
   <i type="int" name="NSW">     5</i>
   <i type="int" name="IBRION">     2</i>
   <i type="int" name="MDALGO">     0</i>
   <i type="int" name="ISIF">     2</i>
   <i name="PSTRESS">      0.00000000</i>
   <i name="EDIFFG">      0.00100000</i>
   <i type="int" name="NFREE">     1</i>
   <i name="POTIM">      0.50000000</i>
   <i name="SMASS">     -3.00000000</i>
   <i name="SCALEE">      1.00000000</i>
  </separator>
  <separator name="ionic md" >
   <i name="TEBEG">      0.00010000</i>
   <i name="TEEND">      0.00010000</i>
   <i type="int" name="NBLOCK">     1</i>
   <i type="int" name="KBLOCK">     5</i>
   <i type="int" name="NPACO">   256</i>
   <i name="APACO">     16.00000000</i>
  </separator>
  <separator name="symmetry" >
   <i type="int" name="ISYM">     2</i>
   <i name="SYMPREC">      0.00001000</i>
  </separator>
  <separator name="dos" >
   <i type="int" name="LORBIT">     0</i>
   <v name="RWIGS">     -1.00000000     -1.00000000</v>
   <i type="int" name="NEDOS">   301</i>
   <i name="EMIN">     10.00000000</i>
   <i name="EMAX">    -10.00000000</i>
   <i name="EFERMI">      0.00000000</i>
  </separator>
  <separator name="writing" >
   <i type="int" name="NWRITE">     2</i>
   <i type="logical" name="LWAVE"> T  </i>
   <i type="logical" name="LDOWNSAMPLE"> F  </i>
   <i type="logical" name="LCHARG"> T  </i>
   <i type="logical" name="LPARD"> F  </i>
   <i type="logical" name="LVTOT"> F  </i>
   <i type="logical" name="LVHAR"> F  </i>
   <i type="logical" name="LELF"> F  </i>
   <i type="logical" name="LOPTICS"> F  </i>
   <v name="STM">      0.00000000      0.00000000      0.00000000      0.00000000      0.00000000      0.00000000      0.00000000</v>
  </separator>
  <separator name="performance" >
   <i type="int" name="NPAR">     1</i>
   <i type="int" name="NSIM">     4</i>
   <i type="int" name="NBLK">    -1</i>
   <i type="logical" name="LPLANE"> T  </i>
   <i type="logical" name="LSCALAPACK"> T  </i>
   <i type="logical" name="LSCAAWARE"> F  </i>
   <i type="logical" name="LSCALU"> F  </i>
   <i type="logical" name="LASYNC"> F  </i>
   <i type="logical" name="LORBITALREAL"> F  </i>
  </separator>
  <separator name="miscellaneous" >
   <i type="int" name="IDIOT">     3</i>
   <i type="int" name="PHON_NSTRUCT">    -1</i>
   <i type="logical" name="LMUSIC"> F  </i>
   <v name="POMASS">      1.00000000      9.01300000</v>
   <v name="DARWINR">      0.00000000      0.00000000</v>
   <v name="DARWINV">      1.00000000      1.00000000</v>
   <i type="logical" name="LCORR"> T  </i>
  </separator>
  <i type="logical" name="GGA_COMPAT"> T  </i>
  <i type="logical" name="LBERRY"> F  </i>
  <i type="int" name="ICORELEVEL">     0</i>
  <i type="logical" name="LDAU"> F  </i>
  <i type="int" name="I_CONSTRAINED_M">     0</i>
  <separator name="electronic exchange-correlation" >
   <i type="string" name="GGA">--</i>
   <i type="int" name="VOSKOWN">     0</i>
   <i type="logical" name="LHFCALC"> F  </i>
   <i type="string" name="PRECFOCK"></i>
   <i type="logical" name="LSYMGRAD"> F  </i>
   <i type="logical" name="LHFONE"> F  </i>
   <i type="logical" name="LRHFCALC"> F  </i>
   <i type="logical" name="LTHOMAS"> F  </i>
   <i type="logical" name="LMODELHF"> F  </i>
   <i type="logical" name="LFOCKACE"> F  </i>
   <i name="ENCUT4O">     -1.00000000</i>
   <i type="int" name="EXXOEP">     0</i>
   <i type="int" name="FOURORBIT">     0</i>
   <i name="AEXX">      0.00000000</i>
   <i name="HFALPHA">      0.00000000</i>
   <i name="MCALPHA">      0.00000000</i>
   <i name="ALDAX">      1.00000000</i>
   <i name="AGGAX">      1.00000000</i>
   <i name="ALDAC">      1.00000000</i>
   <i name="AGGAC">      1.00000000</i>
   <i type="int" name="NKREDX">     1</i>
   <i type="int" name="NKREDY">     1</i>
   <i type="int" name="NKREDZ">     1</i>
   <i type="logical" name="SHIFTRED"> F  </i>
   <i type="logical" name="ODDONLY"> F  </i>
   <i type="logical" name="EVENONLY"> F  </i>
   <i type="int" name="LMAXFOCK">     0</i>
   <i type="int" name="NMAXFOCKAE">     0</i>
   <i type="logical" name="LFOCKAEDFT"> F  </i>
   <i name="HFSCREEN">      0.00000000</i>
   <i name="HFSCREENC">      0.00000000</i>
   <i type="int" name="NBANDSGWLOW">     0</i>
  </separator>
  <separator name="vdW DFT" >
   <i type="logical" name="LUSE_VDW"> F  </i>
   <i name="Zab_VDW">     -0.84910000</i>
   <i name="PARAM1">      0.12340000</i>
   <i name="PARAM2">      1.00000000</i>
   <i name="PARAM3">      0.00000000</i>
  </separator>
  <separator name="model GW" >
   <i type="int" name="MODEL_GW">     0</i>
   <i name="MODEL_EPS0">      7.35199094</i>
   <i name="MODEL_ALPHA">      1.00000000</i>
  </separator>
  <separator name="linear response parameters" >
   <i type="logical" name="LEPSILON"> F  </i>
   <i type="logical" name="LRPA"> F  </i>
   <i type="logical" name="LNABLA"> F  </i>
   <i type="logical" name="LVEL"> F  </i>
   <i type="int" name="KINTER">     0</i>
   <i name="CSHIFT">      0.10000000</i>
   <i name="OMEGAMAX">     -1.00000000</i>
   <i name="DEG_THRESHOLD">      0.00200000</i>
   <i name="RTIME">     -0.10000000</i>
   <i name="WPLASMAI">      0.00000000</i>
   <v name="DFIELD">      0.00000000      0.00000000      0.00000000</v>
   <v name="WPLASMA">      0.00000000      0.00000000      0.00000000      0.00000000      0.00000000      0.00000000      0.00000000      0.00000000      0.00000000</v>
  </separator>
  <separator name="orbital magnetization" >
   <i type="logical" name="NUCIND"> F  </i>
   <v name="MAGPOS">      0.00000000      0.00000000      0.00000000</v>
   <i type="logical" name="LNICSALL"> T  </i>
   <i type="logical" name="ORBITALMAG"> F  </i>
   <i type="logical" name="LMAGBLOCH"> F  </i>
   <i type="logical" name="LCHIMAG"> F  </i>
   <i type="logical" name="LGAUGE"> T  </i>
   <i type="int" name="MAGATOM">     0</i>
   <v name="MAGDIPOL">      0.00000000      0.00000000      0.00000000</v>
   <v name="AVECCONST">      0.00000000      0.00000000      0.00000000</v>
  </separator>
  <separator name="response functions" >
   <i type="logical" name="LFINITE_TEMPERATURE"> F  </i>
   <i type="logical" name="LADDER"> F  </i>
   <i type="logical" name="LRPAFORCE"> F  </i>
   <i type="logical" name="LFXC"> F  </i>
   <i type="logical" name="LHARTREE"> T  </i>
   <i type="int" name="IBSE">     0</i>
   <v type="int" name="KPOINT">    -1     0     0     0</v>
   <i type="logical" name="LTCTC"> F  </i>
   <i type="logical" name="LTCTE"> F  </i>
   <i type="logical" name="LTETE"> F  </i>
   <i type="logical" name="LTRIPLET"> F  </i>
   <i type="logical" name="LFXCEPS"> F  </i>
   <i type="logical" name="LFXHEG"> F  </i>
   <i type="int" name="NATURALO">     2</i>
   <i type="logical" name="LHOLEGF"> F  </i>
   <i type="logical" name="L2ORDER"> F  </i>
   <i type="logical" name="LDMP1"> F  </i>
   <i type="logical" name="LMP2LT"> F  </i>
   <i type="logical" name="LSMP2LT"> F  </i>
   <i type="logical" name="LGWLF"> F  </i>
   <i name="ENCUTGW">     -2.00000000</i>
   <i name="ENCUTGWSOFT">     -2.00000000</i>
   <i name="ENCUTLF">     -1.00000000</i>
   <i type="logical" name="LESF_SPLINES"> F  </i>
   <i type="int" name="LMAXMP2">    -1</i>
   <i name="SCISSOR">      0.00000000</i>
   <i type="int" name="NOMEGA">     0</i>
   <i type="int" name="NOMEGAR">     0</i>
   <i type="int" name="NBANDSGW">    -1</i>
   <i type="int" name="NBANDSO">    -1</i>
   <i type="int" name="NBANDSV">    -1</i>
   <i type="int" name="NELM">     1</i>
   <i type="int" name="NELMHF">     1</i>
   <i type="int" name="DIM">     3</i>
   <i type="int" name="IESPILON">     4</i>
   <i type="int" name="ANTIRES">     0</i>
   <i name="OMEGAMAX">    -30.00000000</i>
   <i name="OMEGAMIN">    -30.00000000</i>
   <i name="OMEGATL">   -200.00000000</i>
   <i type="int" name="OMEGAGRID">     0</i>
   <i name="CSHIFT">     -0.10000000</i>
   <i type="logical" name="LSELFENERGY"> F  </i>
   <i type="logical" name="LSPECTRAL"> F  </i>
   <i type="logical" name="LSPECTRALGW"> F  </i>
   <i type="logical" name="LSINGLES"> F  </i>
   <i type="logical" name="LFERMIGW"> F  </i>
   <i type="logical" name="ODDONLYGW"> F  </i>
   <i type="logical" name="EVENONLYGW"> F  </i>
   <i type="int" name="NKREDLFX">     1</i>
   <i type="int" name="NKREDLFY">     1</i>
   <i type="int" name="NKREDLFZ">     1</i>
   <i type="int" name="MAXMEM">  2800</i>
   <i type="int" name="TELESCOPE">     0</i>
   <i type="int" name="NTAUPAR">    -1</i>
   <i type="int" name="NOMEGAPAR">    -1</i>
   <i name="DAMP_NEWTON">      0.80000001</i>
   <i name="LAMBDA">      1.00000000</i>
  </separator>
  <separator name="External order field" >
   <i name="OFIELD_KAPPA">      0.00000000</i>
   <v name="OFIELD_K">      0.00000000      0.00000000      0.00000000</v>
   <i name="OFIELD_Q6_NEAR">      0.00000000</i>
   <i name="OFIELD_Q6_FAR">      0.00000000</i>
   <i name="OFIELD_A">      0.00000000</i>
  </separator>
 </parameters>
 <atominfo>
  <atoms>       3 </atoms>
  <types>       2 </types>
  <array name="atoms" >
   <dimension dim="1">ion</dimension>
   <field type="string">element</field>
   <field type="int">atomtype</field>
   <set>
    <rc><c>H </c><c>   1</c></rc>
    <rc><c>H </c><c>   1</c></rc>
    <rc><c>Be</c><c>   2</c></rc>
   </set>
  </array>
  <array name="atomtypes" >
   <dimension dim="1">type</dimension>
   <field type="int">atomspertype</field>
   <field type="string">element</field>
   <field>mass</field>
   <field>valence</field>
   <field type="string">pseudopotential</field>
   <set>
    <rc><c>   2</c><c>H </c><c>      1.00000000</c><c>      1.00000000</c><c>  PAW_PBE H 15Jun2001                   </c></rc>
    <rc><c>   1</c><c>Be</c><c>      9.01300000</c><c>      2.00000000</c><c>  PAW_PBE Be_GW 04Mar2008               </c></rc>
   </set>
  </array>
 </atominfo>
 <structure name="initialpos" >
  <crystal>
   <varray name="basis" >
    <v>       3.32500005       0.00000000       0.00000000 </v>
    <v>       0.00000000       3.32500005       0.00000000 </v>
    <v>       0.00000000       0.00000000       3.32500005 </v>
   </varray>
   <i name="volume">     36.75995471 </i>
   <varray name="rec_basis" >
    <v>       0.30075188       0.00000000       0.00000000 </v>
    <v>       0.00000000       0.30075188       0.00000000 </v>
    <v>       0.00000000       0.00000000       0.30075188 </v>
   </varray>
  </crystal>
  <varray name="positions" >
   <v>       0.89999998       0.50000000       0.50000000 </v>
   <v>       0.09999999       0.50000000       0.50000000 </v>
   <v>       0.50000000       0.50000000       0.50000000 </v>
  </varray>
 </structure>
 <calculation>
  <scstep>
   <time name="dav">    0.00    0.00</time>
   <time name="total">    0.03    0.03</time>
   <energy>
    <i name="alphaZ">      2.73421077 </i>
    <i name="ewald">    -25.69146594 </i>
    <i name="hartreedc">    -11.56837295 </i>
    <i name="XCdc">      7.95989471 </i>
    <i name="pawpsdc">     19.56108429 </i>
    <i name="pawaedc">    -18.94546289 </i>
    <i name="eentropy">     -0.00000000 </i>
    <i name="bandstr">    -27.61929856 </i>
    <i name="atom">     52.32552977 </i>
    <i name="e_fr_energy">     -1.24388080 </i>
    <i name="e_wo_entrp">     -1.24388080 </i>
    <i name="e_0_energy">     -1.24388080 </i>
   </energy>
  </scstep>
  <scstep>
   <time name="dav">    0.01    0.01</time>
   <time name="total">    0.01    0.01</time>
   <energy>
    <i name="e_fr_energy">     -4.43078309 </i>
    <i name="e_wo_entrp">     -4.39116778 </i>
    <i name="e_0_energy">     -4.41097544 </i>
   </energy>
  </scstep>
  <scstep>
   <time name="dav">    0.00    0.00</time>
   <time name="total">    0.00    0.00</time>
   <energy>
    <i name="e_fr_energy">     -4.64856350 </i>
    <i name="e_wo_entrp">     -4.63057870 </i>
    <i name="e_0_energy">     -4.63957110 </i>
   </energy>
  </scstep>
  <scstep>
   <time name="dav">    0.00    0.00</time>
   <time name="total">    0.00    0.00</time>
   <energy>
    <i name="e_fr_energy">     -4.65024223 </i>
    <i name="e_wo_entrp">     -4.63237752 </i>
    <i name="e_0_energy">     -4.64130988 </i>
   </energy>
  </scstep>
  <scstep>
   <time name="dav">    0.00    0.00</time>
   <time name="total">    0.01    0.01</time>
   <energy>
    <i name="e_fr_energy">     -4.65028683 </i>
    <i name="e_wo_entrp">     -4.63242532 </i>
    <i name="e_0_energy">     -4.64135607 </i>
   </energy>
  </scstep>
  <scstep>
   <time name="dav">    0.00    0.00</time>
   <time name="total">    0.03    0.03</time>
   <energy>
    <i name="e_fr_energy">     -3.32426015 </i>
    <i name="e_wo_entrp">     -3.13591029 </i>
    <i name="e_0_energy">     -3.23008522 </i>
   </energy>
  </scstep>
  <scstep>
   <time name="dav">    0.00    0.00</time>
   <time name="total">    0.03    0.03</time>
   <energy>
    <i name="e_fr_energy">     -3.23678726 </i>
    <i name="e_wo_entrp">     -3.02242707 </i>
    <i name="e_0_energy">     -3.12960717 </i>
   </energy>
  </scstep>
  <scstep>
   <time name="dav">    0.00    0.00</time>
   <time name="total">    0.03    0.03</time>
   <energy>
    <i name="e_fr_energy">     -3.22078355 </i>
    <i name="e_wo_entrp">     -2.99517814 </i>
    <i name="e_0_energy">     -3.10798084 </i>
   </energy>
  </scstep>
  <scstep>
   <time name="dav">    0.00    0.00</time>
   <time name="total">    0.03    0.03</time>
   <energy>
    <i name="e_fr_energy">     -3.23057159 </i>
    <i name="e_wo_entrp">     -3.01947532 </i>
    <i name="e_0_energy">     -3.12502345 </i>
   </energy>
  </scstep>
  <scstep>
   <time name="dav">    0.00    0.00</time>
   <time name="total">    0.03    0.03</time>
   <energy>
    <i name="e_fr_energy">     -3.22482435 </i>
    <i name="e_wo_entrp">     -3.00367259 </i>
    <i name="e_0_energy">     -3.11424847 </i>
   </energy>
  </scstep>
  <scstep>
   <time name="dav">    0.00    0.00</time>
   <time name="total">    0.03    0.03</time>
   <energy>
    <i name="e_fr_energy">     -3.22435476 </i>
    <i name="e_wo_entrp">     -3.00155972 </i>
    <i name="e_0_energy">     -3.11295724 </i>
   </energy>
  </scstep>
  <scstep>
   <time name="dav">    0.00    0.00</time>
   <time name="total">    0.02    0.02</time>
   <energy>
    <i name="alphaZ">      2.73421077 </i>
    <i name="ewald">    -25.69146594 </i>
    <i name="hartreedc">    -18.75550882 </i>
    <i name="XCdc">      8.87603533 </i>
    <i name="pawpsdc">     73.57241678 </i>
    <i name="pawaedc">    -73.06139157 </i>
    <i name="eentropy">     -0.22338433 </i>
    <i name="bandstr">    -23.00079769 </i>
    <i name="atom">     52.32552977 </i>
    <i name="e_fr_energy">     -3.22435571 </i>
    <i name="e_wo_entrp">     -3.00097138 </i>
    <i name="e_0_energy">     -3.11266354 </i>
   </energy>
  </scstep>
  <structure>
   <crystal>
    <varray name="basis" >
     <v>       3.32500005       0.00000000       0.00000000 </v>
     <v>       0.00000000       3.32500005       0.00000000 </v>
     <v>       0.00000000       0.00000000       3.32500005 </v>
    </varray>
    <i name="volume">     36.75995471 </i>
    <varray name="rec_basis" >
     <v>       0.30075188       0.00000000       0.00000000 </v>
     <v>       0.00000000       0.30075188       0.00000000 </v>
     <v>       0.00000000       0.00000000       0.30075188 </v>
    </varray>
   </crystal>
   <varray name="positions" >
    <v>       0.89999998       0.50000000       0.50000000 </v>
    <v>       0.09999999       0.50000000       0.50000000 </v>
    <v>       0.50000000       0.50000000       0.50000000 </v>
   </varray>
  </structure>
  <varray name="forces" >
   <v>      -3.94855916       0.00000000       0.00000000 </v>
   <v>       3.94855916      -0.00000000      -0.00000000 </v>
   <v>      -0.00000000      -0.00000000      -0.00000000 </v>
  </varray>
  <varray name="stress" >
   <v>     890.04883296      -0.00000000      -0.00000000 </v>
   <v>       0.00000000    -195.64782434      -0.00000000 </v>
   <v>       0.00000000       0.00000000    -195.64782434 </v>
  </varray>
  <energy>
   <i name="e_fr_energy">     -3.22435571 </i>
   <i name="e_wo_entrp">     -3.00097138 </i>
   <i name="e_0_energy">     -3.11266354 </i>
  </energy>
  <time name="totalsc">    0.31    2.63</time>
 </calculation>
 <calculation>
  <scstep>
   <time name="dav">    0.00    0.00</time>
   <time name="total">    0.03    0.03</time>
   <energy>
    <i name="alphaZ">      2.73421077 </i>
    <i name="ewald">    -27.92262830 </i>
    <i name="hartreedc">    -17.00776518 </i>
    <i name="XCdc">      8.70527951 </i>
    <i name="pawpsdc">     73.58380388 </i>
    <i name="pawaedc">    -73.07282641 </i>
    <i name="eentropy">     -0.00000000 </i>
    <i name="bandstr">    -26.18075548 </i>
    <i name="atom">     52.32552977 </i>
    <i name="e_fr_energy">     -6.83515146 </i>
    <i name="e_wo_entrp">     -6.83515146 </i>
    <i name="e_0_energy">     -6.83515146 </i>
   </energy>
  </scstep>
  <scstep>
   <time name="dav">    0.00    0.00</time>
   <time name="total">    0.03    0.03</time>
   <energy>
    <i name="e_fr_energy">     -6.21977637 </i>
    <i name="e_wo_entrp">     -6.21977637 </i>
    <i name="e_0_energy">     -6.21977637 </i>
   </energy>
  </scstep>
  <scstep>
   <time name="dav">    0.00    0.00</time>
   <time name="total">    0.03    0.03</time>
   <energy>
    <i name="e_fr_energy">     -6.02370162 </i>
    <i name="e_wo_entrp">     -6.02370162 </i>
    <i name="e_0_energy">     -6.02370162 </i>
   </energy>
  </scstep>
  <scstep>
   <time name="dav">    0.00    0.00</time>
   <time name="total">    0.03    0.03</time>
   <energy>
    <i name="e_fr_energy">     -6.03581001 </i>
    <i name="e_wo_entrp">     -6.03581001 </i>
    <i name="e_0_energy">     -6.03581001 </i>
   </energy>
  </scstep>
  <scstep>
   <time name="dav">    0.00    0.00</time>
   <time name="total">    0.03    0.03</time>
   <energy>
    <i name="e_fr_energy">     -6.04155087 </i>
    <i name="e_wo_entrp">     -6.04155087 </i>
    <i name="e_0_energy">     -6.04155087 </i>
   </energy>
  </scstep>
  <scstep>
   <time name="dav">    0.01    0.01</time>
   <time name="total">    0.03    0.03</time>
   <energy>
    <i name="alphaZ">      2.73421077 </i>
    <i name="ewald">    -27.92262830 </i>
    <i name="hartreedc">    -22.79926501 </i>
    <i name="XCdc">      9.35521364 </i>
    <i name="pawpsdc">    130.94907715 </i>
    <i name="pawaedc">   -130.51485367 </i>
    <i name="eentropy">     -0.00000000 </i>
    <i name="bandstr">    -20.16890839 </i>
    <i name="atom">     52.32552977 </i>
    <i name="e_fr_energy">     -6.04162404 </i>
    <i name="e_wo_entrp">     -6.04162404 </i>
    <i name="e_0_energy">     -6.04162404 </i>
   </energy>
  </scstep>
  <structure>
   <crystal>
    <varray name="basis" >
     <v>       3.32500005       0.00000000       0.00000000 </v>
     <v>       0.00000000       3.32500005       0.00000000 </v>
     <v>       0.00000000       0.00000000       3.32500005 </v>
    </varray>
    <i name="volume">     36.75995471 </i>
    <varray name="rec_basis" >
     <v>       0.30075188       0.00000000       0.00000000 </v>
     <v>       0.00000000       0.30075188       0.00000000 </v>
     <v>       0.00000000       0.00000000       0.30075188 </v>
    </varray>
   </crystal>
   <varray name="positions" >
    <v>       0.84271006       0.50000000       0.50000000 </v>
    <v>       0.15728991       0.50000000       0.50000000 </v>
    <v>       0.50000000       0.50000000       0.50000000 </v>
   </varray>
  </structure>
  <varray name="forces" >
   <v>      -3.31688689      -0.00000000       0.00000000 </v>
   <v>       3.31688689      -0.00000000      -0.00000000 </v>
   <v>      -0.00000000       0.00000000       0.00000000 </v>
  </varray>
  <varray name="stress" >
   <v>    1119.61736876       0.00000000      -0.00000000 </v>
   <v>       0.00000000    -282.47583368       0.00000000 </v>
   <v>       0.00000000       0.00000000    -282.47583368 </v>
  </varray>
  <energy>
   <i name="e_fr_energy">     -6.04162404 </i>
   <i name="e_wo_entrp">     -6.04162404 </i>
   <i name="e_0_energy">     -6.04162404 </i>
  </energy>
  <time name="totalsc">    0.24    4.27</time>
 </calculation>
 <calculation>
  <scstep>
   <time name="dav">    0.00    0.00</time>
   <time name="total">    0.03    0.03</time>
   <energy>
    <i name="alphaZ">      2.73421077 </i>
    <i name="ewald">     18.12682773 </i>
    <i name="hartreedc">    -24.51290211 </i>
    <i name="XCdc">      9.38592496 </i>
    <i name="pawpsdc">    131.41165990 </i>
    <i name="pawaedc">   -130.97876052 </i>
    <i name="eentropy">     -0.00000000 </i>
    <i name="bandstr">    -35.58245915 </i>
    <i name="atom">     52.32552977 </i>
    <i name="e_fr_energy">     22.91003135 </i>
    <i name="e_wo_entrp">     22.91003135 </i>
    <i name="e_0_energy">     22.91003135 </i>
   </energy>
  </scstep>
  <scstep>
   <time name="dav">    0.00    0.00</time>
   <time name="total">    0.03    0.03</time>
   <energy>
    <i name="e_fr_energy">     23.21766602 </i>
    <i name="e_wo_entrp">     23.21766602 </i>
    <i name="e_0_energy">     23.21766602 </i>
   </energy>
  </scstep>
  <scstep>
   <time name="dav">    0.00    0.00</time>
   <time name="total">    0.03    0.03</time>
   <energy>
    <i name="e_fr_energy">     23.42179633 </i>
    <i name="e_wo_entrp">     23.42179633 </i>
    <i name="e_0_energy">     23.42179633 </i>
   </energy>
  </scstep>
  <scstep>
   <time name="dav">    0.00    0.00</time>
   <time name="total">    0.03    0.03</time>
   <energy>
    <i name="e_fr_energy">     23.43939743 </i>
    <i name="e_wo_entrp">     23.43939743 </i>
    <i name="e_0_energy">     23.43939743 </i>
   </energy>
  </scstep>
  <scstep>
   <time name="dav">    0.00    0.00</time>
   <time name="total">    0.03    0.03</time>
   <energy>
    <i name="e_fr_energy">     23.43776201 </i>
    <i name="e_wo_entrp">     23.43776201 </i>
    <i name="e_0_energy">     23.43776201 </i>
   </energy>
  </scstep>
  <scstep>
   <time name="dav">    0.00    0.00</time>
   <time name="total">    0.03    0.03</time>
   <energy>
    <i name="alphaZ">      2.73421077 </i>
    <i name="ewald">     18.12682773 </i>
    <i name="hartreedc">    -29.20870209 </i>
    <i name="XCdc">      9.98315787 </i>
    <i name="pawpsdc">    288.06089539 </i>
    <i name="pawaedc">   -288.59695752 </i>
    <i name="eentropy">     -0.00000000 </i>
    <i name="bandstr">    -29.98723773 </i>
    <i name="atom">     52.32552977 </i>
    <i name="e_fr_energy">     23.43772418 </i>
    <i name="e_wo_entrp">     23.43772418 </i>
    <i name="e_0_energy">     23.43772418 </i>
   </energy>
  </scstep>
  <structure>
   <crystal>
    <varray name="basis" >
     <v>       3.32500005       0.00000000       0.00000000 </v>
     <v>       0.00000000       3.32500005       0.00000000 </v>
     <v>       0.00000000       0.00000000       3.32500005 </v>
    </varray>
    <i name="volume">     36.75995471 </i>
    <varray name="rec_basis" >
     <v>       0.30075188       0.00000000       0.00000000 </v>
     <v>       0.00000000       0.30075188       0.00000000 </v>
     <v>       0.00000000       0.00000000       0.30075188 </v>
    </varray>
   </crystal>
   <varray name="positions" >
    <v>       0.67084031       0.50000000       0.50000000 </v>
    <v>       0.32915966       0.50000000       0.50000000 </v>
    <v>       0.50000000       0.50000000       0.50000000 </v>
   </varray>
  </structure>
  <varray name="forces" >
   <v>      83.95618729      -0.00000000       0.00000000 </v>
   <v>     -83.95618729       0.00000000       0.00000000 </v>
   <v>      -0.00000000       0.00000000      -0.00000000 </v>
  </varray>
  <varray name="stress" >
   <v>    4196.20816891      -0.00000000       0.00000000 </v>
   <v>      -0.00000000    -334.51386212       0.00000000 </v>
   <v>       0.00000000      -0.00000000    -334.51386212 </v>
  </varray>
  <energy>
   <i name="e_fr_energy">     23.43772418 </i>
   <i name="e_wo_entrp">     23.43772418 </i>
   <i name="e_0_energy">     23.43772418 </i>
  </energy>
  <time name="totalsc">    0.23    1.72</time>
 </calculation>
 <calculation>
  <scstep>
   <time name="dav">    0.00    0.00</time>
   <time name="total">    0.03    0.03</time>
   <energy>
    <i name="alphaZ">      2.73421077 </i>
    <i name="ewald">    -27.60808912 </i>
    <i name="hartreedc">    -23.75256542 </i>
    <i name="XCdc">      9.66950117 </i>
    <i name="pawpsdc">    288.13881610 </i>
    <i name="pawaedc">   -288.67475970 </i>
    <i name="eentropy">     -0.00000000 </i>
    <i name="bandstr">    -19.55614246 </i>
    <i name="atom">     52.32552977 </i>
    <i name="e_fr_energy">     -6.72349890 </i>
    <i name="e_wo_entrp">     -6.72349890 </i>
    <i name="e_0_energy">     -6.72349890 </i>
   </energy>
  </scstep>
  <scstep>
   <time name="dav">    0.00    0.00</time>
   <time name="total">    0.03    0.03</time>
   <energy>
    <i name="e_fr_energy">     -6.35396363 </i>
    <i name="e_wo_entrp">     -6.35396363 </i>
    <i name="e_0_energy">     -6.35396363 </i>
   </energy>
  </scstep>
  <scstep>
   <time name="dav">    0.00    0.00</time>
   <time name="total">    0.03    0.03</time>
   <energy>
    <i name="e_fr_energy">     -6.15377872 </i>
    <i name="e_wo_entrp">     -6.15377872 </i>
    <i name="e_0_energy">     -6.15377872 </i>
   </energy>
  </scstep>
  <scstep>
   <time name="dav">    0.00    0.00</time>
   <time name="total">    0.03    0.03</time>
   <energy>
    <i name="e_fr_energy">     -6.15684030 </i>
    <i name="e_wo_entrp">     -6.15684030 </i>
    <i name="e_0_energy">     -6.15684030 </i>
   </energy>
  </scstep>
  <scstep>
   <time name="dav">    0.00    0.00</time>
   <time name="total">    0.03    0.03</time>
   <energy>
    <i name="e_fr_energy">     -6.15812111 </i>
    <i name="e_wo_entrp">     -6.15812111 </i>
    <i name="e_0_energy">     -6.15812111 </i>
   </energy>
  </scstep>
  <scstep>
   <time name="dav">    0.00    0.00</time>
   <time name="total">    0.03    0.03</time>
   <energy>
    <i name="alphaZ">      2.73421077 </i>
    <i name="ewald">    -27.60808912 </i>
    <i name="hartreedc">    -22.78333719 </i>
    <i name="XCdc">      9.36145082 </i>
    <i name="pawpsdc">    137.21708849 </i>
    <i name="pawaedc">   -136.79133510 </i>
    <i name="eentropy">     -0.00000000 </i>
    <i name="bandstr">    -20.61362722 </i>
    <i name="atom">     52.32552977 </i>
    <i name="e_fr_energy">     -6.15810879 </i>
    <i name="e_wo_entrp">     -6.15810879 </i>
    <i name="e_0_energy">     -6.15810879 </i>
   </energy>
  </scstep>
  <structure>
   <crystal>
    <varray name="basis" >
     <v>       3.32500005       0.00000000       0.00000000 </v>
     <v>       0.00000000       3.32500005       0.00000000 </v>
     <v>       0.00000000       0.00000000       3.32500005 </v>
    </varray>
    <i name="volume">     36.75995471 </i>
    <varray name="rec_basis" >
     <v>       0.30075188       0.00000000       0.00000000 </v>
     <v>       0.00000000       0.30075188       0.00000000 </v>
     <v>       0.00000000       0.00000000       0.30075188 </v>
    </varray>
   </crystal>
   <varray name="positions" >
    <v>       0.83617801       0.50000000       0.50000000 </v>
    <v>       0.16382197       0.50000000       0.50000000 </v>
    <v>       0.50000000       0.50000000       0.50000000 </v>
   </varray>
  </structure>
  <varray name="forces" >
   <v>      -2.04076675       0.00000000      -0.00000000 </v>
   <v>       2.04076675       0.00000000       0.00000000 </v>
   <v>       0.00000000      -0.00000000       0.00000000 </v>
  </varray>
  <varray name="stress" >
   <v>    1141.91476590       0.00000000       0.00000000 </v>
   <v>       0.00000000    -281.60568208       0.00000000 </v>
   <v>       0.00000000       0.00000000    -281.60568208 </v>
  </varray>
  <energy>
   <i name="e_fr_energy">     -6.15810879 </i>
   <i name="e_wo_entrp">     -6.15810879 </i>
   <i name="e_0_energy">     -6.15810879 </i>
  </energy>
  <time name="totalsc">    0.24    3.21</time>
  <eigenvalues>
 <calculation>
  <scstep>
   <time name="dav">    0.00    0.00</time>
   <time name="total">    0.03    0.03</time>
   <energy>
    <i name="alphaZ">      2.73421077 </i>
    <i name="ewald">    -27.60808912 </i>
    <i name="hartreedc">    -23.75256542 </i>
    <i name="XCdc">      9.66950117 </i>
    <i name="pawpsdc">    288.13881610 </i>
    <i name="pawaedc">   -288.67475970 </i>
    <i name="eentropy">     -0.00000000 </i>
    <i name="bandstr">    -19.55614246 </i>
    <i name="atom">     52.32552977 </i>
    <i name="e_fr_energy">     -6.72349890 </i>
    <i name="e_wo_entrp">     -6.72349890 </i>
    <i name="e_0_energy">     -6.72349890 </i>
   </energy>
  </scstep>
  <scstep>
   <time name="dav">    0.00    0.00</time>
   <time name="total">    0.03    0.03</time>
   <energy>
    <i name="e_fr_energy">     -6.35396363 </i>
    <i name="e_wo_entrp">     -6.35396363 </i>
    <i name="e_0_energy">     -6.35396363 </i>
   </energy>
  </scstep>
  <scstep>
   <time name="dav">    0.00    0.00</time>
   <time name="total">    0.03    0.03</time>
   <energy>
    <i name="e_fr_energy">     -6.15377872 </i>
    <i name="e_wo_entrp">     -6.15377872 </i>
    <i name="e_0_energy">     -6.15377872 </i>
   </energy>
  </scstep>
  <scstep>
   <time name="dav">    0.00    0.00</time>
   <time name="total">    0.03    0.03</time>
   <energy>
    <i name="e_fr_energy">     -6.15684030 </i>
    <i name="e_wo_entrp">     -6.15684030 </i>
    <i name="e_0_energy">     -6.15684030 </i>
   </energy>
  </scstep>
  <scstep>
   <time name="dav">    0.00    0.00</time>
   <time name="total">    0.03    0.03</time>
   <energy>
    <i name="e_fr_energy">     -6.15812111 </i>
    <i name="e_wo_entrp">     -6.15812111 </i>
    <i name="e_0_energy">     -6.15812111 </i>
   </energy>
  </scstep>
  <scstep>
   <time name="dav">    0.00    0.00</time>
   <time name="total">    0.03    0.03</time>
   <energy>
    <i name="alphaZ">      2.73421077 </i>
    <i name="ewald">    -27.60808912 </i>
    <i name="hartreedc">    -22.78333719 </i>
    <i name="XCdc">      9.36145082 </i>
    <i name="pawpsdc">    137.21708849 </i>
    <i name="pawaedc">   -136.79133510 </i>
    <i name="eentropy">     -0.00000000 </i>
    <i name="bandstr">    -20.61362722 </i>
    <i name="atom">     52.32552977 </i>
    <i name="e_fr_energy">     -6.15810879 </i>
    <i name="e_wo_entrp">     -6.15810879 </i>
    <i name="e_0_energy">     -6.15810879 </i>
   </energy>
  </scstep>
  <structure>
   <crystal>
    <varray name="basis" >
     <v>       3.32500005       0.00000000       0.00000000 </v>
     <v>       0.00000000       3.32500005       0.00000000 </v>
     <v>       0.00000000       0.00000000       3.32500005 </v>
    </varray>
    <i name="volume">     36.75995471 </i>
    <varray name="rec_basis" >
     <v>       0.30075188       0.00000000       0.00000000 </v>
     <v>       0.00000000       0.30075188       0.00000000 </v>
     <v>       0.00000000       0.00000000       0.30075188 </v>
    </varray>
   </crystal>
   <varray name="positions" >
    <v>       0.83617801       0.50000000       0.50000000 </v>
    <v>       0.16382197       0.50000000       0.50000000 </v>
    <v>       0.50000000       0.50000000       0.50000000 </v>
   </varray>
  </structure>
  <varray name="forces" >
   <v>      -2.04076675       0.00000000      -0.00000000 </v>
   <v>       2.04076675       0.00000000       0.00000000 </v>
   <v>       0.00000000      -0.00000000       0.00000000 </v>
  </varray>
  <varray name="stress" >
   <v>    1141.91476590       0.00000000       0.00000000 </v>
   <v>       0.00000000    -281.60568208       0.00000000 </v>
   <v>       0.00000000       0.00000000    -281.60568208 </v>
  </varray>
  <energy>
   <i name="e_fr_energy">     -6.15810879 </i>
   <i name="e_wo_entrp">     -6.15810879 </i>
   <i name="e_0_energy">     -6.15810879 </i>
  </energy>
  <time name="totalsc">    0.23    2.07</time>
  <eigenvalues>
   <array>
    <dimension dim="1">band</dimension>
    <dimension dim="2">kpoint</dimension>
    <dimension dim="3">spin</dimension>
    <field>eigene</field>
    <field>occ</field>
    <set>
     <set comment="spin 1">
      <set comment="kpoint 1">
       <r>   -8.9609    1.0000 </r>
       <r>   -1.3459    1.0000 </r>
       <r>    2.8020    0.0000 </r>
       <r>    4.8624    0.0000 </r>
       <r>    4.8624    0.0000 </r>
       <r>    9.3794    0.0000 </r>
      </set>
     </set>
    </set>
   </array>
  </eigenvalues>
  <separator name="orbital magnetization" >
   <v name="MAGDIPOLOUT">      0.00000000      0.00000000      0.00000000</v>
  </separator>
  <dos>
   <i name="efermi">     -0.38632659 </i>
   <total>
    <array>
     <dimension dim="1">gridpoints</dimension>
     <dimension dim="2">spin</dimension>
     <field>energy</field>
     <field>total</field>
     <field>integrated</field>
     <set>
      <set comment="spin 1">
       <r>   -10.9609     0.0000     0.0000 </r>
       <r>   -10.8864     0.0000     0.0000 </r>
       <r>   -10.8119     0.0000     0.0000 </r>
       <r>   -10.7375     0.0000     0.0000 </r>
       <r>   -10.6630     0.0000     0.0000 </r>
       <r>   -10.5885     0.0000     0.0000 </r>
       <r>   -10.5141     0.0000     0.0000 </r>
       <r>   -10.4396     0.0000     0.0000 </r>
       <r>   -10.3651     0.0000     0.0000 </r>
       <r>   -10.2907     0.0000     0.0000 </r>
       <r>   -10.2162     0.0000     0.0000 </r>
       <r>   -10.1417     0.0000     0.0000 </r>
       <r>   -10.0673     0.0000     0.0000 </r>
       <r>    -9.9928     0.0000     0.0000 </r>
       <r>    -9.9183     0.0000     0.0000 </r>
       <r>    -9.8439     0.0000     0.0000 </r>
       <r>    -9.7694     0.0000     0.0000 </r>
       <r>    -9.6949     0.0000     0.0000 </r>
       <r>    -9.6205     0.0000     0.0000 </r>
       <r>    -9.5460     0.0004     0.0000 </r>
       <r>    -9.4715     0.0036     0.0003 </r>
       <r>    -9.3971     0.0233     0.0020 </r>
       <r>    -9.3226     0.1141     0.0105 </r>
       <r>    -9.2481     0.4258     0.0422 </r>
       <r>    -9.1736     1.2112     0.1324 </r>
       <r>    -9.0992     2.6272     0.3281 </r>
       <r>    -9.0247     4.3455     0.6517 </r>
       <r>    -8.9502     5.4818     1.0599 </r>
       <r>    -8.8758     5.2739     1.4526 </r>
       <r>    -8.8013     3.8697     1.7408 </r>
       <r>    -8.7268     2.1654     1.9020 </r>
       <r>    -8.6524     0.9240     1.9708 </r>
       <r>    -8.5779     0.3006     1.9932 </r>
       <r>    -8.5034     0.0745     1.9988 </r>
       <r>    -8.4290     0.0141     1.9998 </r>
       <r>    -8.3545     0.0020     2.0000 </r>
       <r>    -8.2800     0.0002     2.0000 </r>
       <r>    -8.2056     0.0000     2.0000 </r>
       <r>    -8.1311     0.0000     2.0000 </r>
       <r>    -8.0566     0.0000     2.0000 </r>
       <r>    -7.9822     0.0000     2.0000 </r>
       <r>    -7.9077     0.0000     2.0000 </r>
       <r>    -7.8332     0.0000     2.0000 </r>
       <r>    -7.7588     0.0000     2.0000 </r>
       <r>    -7.6843     0.0000     2.0000 </r>
       <r>    -7.6098     0.0000     2.0000 </r>
       <r>    -7.5354     0.0000     2.0000 </r>
       <r>    -7.4609     0.0000     2.0000 </r>
       <r>    -7.3864     0.0000     2.0000 </r>
       <r>    -7.3120     0.0000     2.0000 </r>
       <r>    -7.2375     0.0000     2.0000 </r>
       <r>    -7.1630     0.0000     2.0000 </r>
       <r>    -7.0886     0.0000     2.0000 </r>
       <r>    -7.0141     0.0000     2.0000 </r>
       <r>    -6.9396     0.0000     2.0000 </r>
       <r>    -6.8652     0.0000     2.0000 </r>
       <r>    -6.7907     0.0000     2.0000 </r>
       <r>    -6.7162     0.0000     2.0000 </r>
       <r>    -6.6418     0.0000     2.0000 </r>
       <r>    -6.5673     0.0000     2.0000 </r>
       <r>    -6.4928     0.0000     2.0000 </r>
       <r>    -6.4183     0.0000     2.0000 </r>
       <r>    -6.3439     0.0000     2.0000 </r>
       <r>    -6.2694     0.0000     2.0000 </r>
       <r>    -6.1949     0.0000     2.0000 </r>
       <r>    -6.1205     0.0000     2.0000 </r>
       <r>    -6.0460     0.0000     2.0000 </r>
       <r>    -5.9715     0.0000     2.0000 </r>
       <r>    -5.8971     0.0000     2.0000 </r>
       <r>    -5.8226     0.0000     2.0000 </r>
       <r>    -5.7481     0.0000     2.0000 </r>
       <r>    -5.6737     0.0000     2.0000 </r>
       <r>    -5.5992     0.0000     2.0000 </r>
       <r>    -5.5247     0.0000     2.0000 </r>
       <r>    -5.4503     0.0000     2.0000 </r>
       <r>    -5.3758     0.0000     2.0000 </r>
       <r>    -5.3013     0.0000     2.0000 </r>
       <r>    -5.2269     0.0000     2.0000 </r>
       <r>    -5.1524     0.0000     2.0000 </r>
       <r>    -5.0779     0.0000     2.0000 </r>
       <r>    -5.0035     0.0000     2.0000 </r>
       <r>    -4.9290     0.0000     2.0000 </r>
       <r>    -4.8545     0.0000     2.0000 </r>
       <r>    -4.7801     0.0000     2.0000 </r>
       <r>    -4.7056     0.0000     2.0000 </r>
       <r>    -4.6311     0.0000     2.0000 </r>
       <r>    -4.5567     0.0000     2.0000 </r>
       <r>    -4.4822     0.0000     2.0000 </r>
       <r>    -4.4077     0.0000     2.0000 </r>
       <r>    -4.3333     0.0000     2.0000 </r>
       <r>    -4.2588     0.0000     2.0000 </r>
       <r>    -4.1843     0.0000     2.0000 </r>
       <r>    -4.1099     0.0000     2.0000 </r>
       <r>    -4.0354     0.0000     2.0000 </r>
       <r>    -3.9609     0.0000     2.0000 </r>
       <r>    -3.8864     0.0000     2.0000 </r>
       <r>    -3.8120     0.0000     2.0000 </r>
       <r>    -3.7375     0.0000     2.0000 </r>
       <r>    -3.6630     0.0000     2.0000 </r>
       <r>    -3.5886     0.0000     2.0000 </r>
       <r>    -3.5141     0.0000     2.0000 </r>
       <r>    -3.4396     0.0000     2.0000 </r>
       <r>    -3.3652     0.0000     2.0000 </r>
       <r>    -3.2907     0.0000     2.0000 </r>
       <r>    -3.2162     0.0000     2.0000 </r>
       <r>    -3.1418     0.0000     2.0000 </r>
       <r>    -3.0673     0.0000     2.0000 </r>
       <r>    -2.9928     0.0000     2.0000 </r>
       <r>    -2.9184     0.0000     2.0000 </r>
       <r>    -2.8439     0.0000     2.0000 </r>
       <r>    -2.7694     0.0000     2.0000 </r>
       <r>    -2.6950     0.0000     2.0000 </r>
       <r>    -2.6205     0.0000     2.0000 </r>
       <r>    -2.5460     0.0000     2.0000 </r>
       <r>    -2.4716     0.0000     2.0000 </r>
       <r>    -2.3971     0.0000     2.0000 </r>
       <r>    -2.3226     0.0000     2.0000 </r>
       <r>    -2.2482     0.0000     2.0000 </r>
       <r>    -2.1737     0.0000     2.0000 </r>
       <r>    -2.0992     0.0000     2.0000 </r>
       <r>    -2.0248     0.0000     2.0000 </r>
       <r>    -1.9503     0.0002     2.0000 </r>
       <r>    -1.8758     0.0021     2.0002 </r>
       <r>    -1.8014     0.0148     2.0013 </r>
       <r>    -1.7269     0.0777     2.0071 </r>
       <r>    -1.6524     0.3110     2.0302 </r>
       <r>    -1.5780     0.9489     2.1009 </r>
       <r>    -1.5035     2.2075     2.2653 </r>
       <r>    -1.4290     3.9162     2.5569 </r>
       <r>    -1.3546     5.2983     2.9515 </r>
       <r>    -1.2801     5.4669     3.3586 </r>
       <r>    -1.2056     4.3021     3.6789 </r>
       <r>    -1.1311     2.5819     3.8712 </r>
       <r>    -1.0567     1.1816     3.9592 </r>
       <r>    -0.9822     0.4123     3.9899 </r>
       <r>    -0.9077     0.1097     3.9981 </r>
       <r>    -0.8333     0.0222     3.9997 </r>
       <r>    -0.7588     0.0034     4.0000 </r>
       <r>    -0.6843     0.0004     4.0000 </r>
       <r>    -0.6099     0.0000     4.0000 </r>
       <r>    -0.5354     0.0000     4.0000 </r>
       <r>    -0.4609     0.0000     4.0000 </r>
       <r>    -0.3865     0.0000     4.0000 </r>
       <r>    -0.3120     0.0000     4.0000 </r>
       <r>    -0.2375     0.0000     4.0000 </r>
       <r>    -0.1631     0.0000     4.0000 </r>
       <r>    -0.0886     0.0000     4.0000 </r>
       <r>    -0.0141     0.0000     4.0000 </r>
       <r>     0.0603     0.0000     4.0000 </r>
       <r>     0.1348     0.0000     4.0000 </r>
       <r>     0.2093     0.0000     4.0000 </r>
       <r>     0.2837     0.0000     4.0000 </r>
       <r>     0.3582     0.0000     4.0000 </r>
       <r>     0.4327     0.0000     4.0000 </r>
       <r>     0.5071     0.0000     4.0000 </r>
       <r>     0.5816     0.0000     4.0000 </r>
       <r>     0.6561     0.0000     4.0000 </r>
       <r>     0.7305     0.0000     4.0000 </r>
       <r>     0.8050     0.0000     4.0000 </r>
       <r>     0.8795     0.0000     4.0000 </r>
       <r>     0.9539     0.0000     4.0000 </r>
       <r>     1.0284     0.0000     4.0000 </r>
       <r>     1.1029     0.0000     4.0000 </r>
       <r>     1.1773     0.0000     4.0000 </r>
       <r>     1.2518     0.0000     4.0000 </r>
       <r>     1.3263     0.0000     4.0000 </r>
       <r>     1.4008     0.0000     4.0000 </r>
       <r>     1.4752     0.0000     4.0000 </r>
       <r>     1.5497     0.0000     4.0000 </r>
       <r>     1.6242     0.0000     4.0000 </r>
       <r>     1.6986     0.0000     4.0000 </r>
       <r>     1.7731     0.0000     4.0000 </r>
       <r>     1.8476     0.0000     4.0000 </r>
       <r>     1.9220     0.0000     4.0000 </r>
       <r>     1.9965     0.0000     4.0000 </r>
       <r>     2.0710     0.0000     4.0000 </r>
       <r>     2.1454     0.0000     4.0000 </r>
       <r>     2.2199     0.0005     4.0000 </r>
       <r>     2.2944     0.0039     4.0003 </r>
       <r>     2.3688     0.0250     4.0022 </r>
       <r>     2.4433     0.1209     4.0112 </r>
       <r>     2.5178     0.4462     4.0444 </r>
       <r>     2.5922     1.2557     4.1379 </r>
       <r>     2.6667     2.6944     4.3386 </r>
       <r>     2.7412     4.4088     4.6669 </r>
       <r>     2.8156     5.5018     5.0766 </r>
       <r>     2.8901     5.2362     5.4665 </r>
       <r>     2.9646     3.8007     5.7496 </r>
       <r>     3.0390     2.1039     5.9062 </r>
       <r>     3.1135     0.8881     5.9724 </r>
       <r>     3.1880     0.2858     5.9936 </r>
       <r>     3.2624     0.0701     5.9989 </r>
       <r>     3.3369     0.0131     5.9998 </r>
       <r>     3.4114     0.0019     6.0000 </r>
       <r>     3.4858     0.0002     6.0000 </r>
       <r>     3.5603     0.0000     6.0000 </r>
       <r>     3.6348     0.0000     6.0000 </r>
       <r>     3.7092     0.0000     6.0000 </r>
       <r>     3.7837     0.0000     6.0000 </r>
       <r>     3.8582     0.0000     6.0000 </r>
       <r>     3.9326     0.0000     6.0000 </r>
       <r>     4.0071     0.0000     6.0000 </r>
       <r>     4.0816     0.0000     6.0000 </r>
       <r>     4.1561     0.0000     6.0000 </r>
       <r>     4.2305     0.0002     6.0000 </r>
       <r>     4.3050     0.0020     6.0002 </r>
       <r>     4.3795     0.0149     6.0013 </r>
       <r>     4.4539     0.0868     6.0077 </r>
       <r>     4.5284     0.3842     6.0363 </r>
       <r>     4.6029     1.2962     6.1329 </r>
       <r>     4.6773     3.3338     6.3811 </r>
       <r>     4.7518     6.5383     6.8680 </r>
       <r>     4.8263     9.7790     7.5962 </r>
       <r>     4.9007    11.1545     8.4269 </r>
       <r>     4.9752     9.7038     9.1495 </r>
       <r>     5.0497     6.4381     9.6289 </r>
       <r>     5.1241     3.2574     9.8715 </r>
       <r>     5.1986     1.2567     9.9651 </r>
       <r>     5.2731     0.3696     9.9926 </r>
       <r>     5.3475     0.0829     9.9988 </r>
       <r>     5.4220     0.0142     9.9998 </r>
       <r>     5.4965     0.0018    10.0000 </r>
       <r>     5.5709     0.0002    10.0000 </r>
       <r>     5.6454     0.0000    10.0000 </r>
       <r>     5.7199     0.0000    10.0000 </r>
       <r>     5.7943     0.0000    10.0000 </r>
       <r>     5.8688     0.0000    10.0000 </r>
       <r>     5.9433     0.0000    10.0000 </r>
       <r>     6.0177     0.0000    10.0000 </r>
       <r>     6.0922     0.0000    10.0000 </r>
       <r>     6.1667     0.0000    10.0000 </r>
       <r>     6.2411     0.0000    10.0000 </r>
       <r>     6.3156     0.0000    10.0000 </r>
       <r>     6.3901     0.0000    10.0000 </r>
       <r>     6.4645     0.0000    10.0000 </r>
       <r>     6.5390     0.0000    10.0000 </r>
       <r>     6.6135     0.0000    10.0000 </r>
       <r>     6.6880     0.0000    10.0000 </r>
       <r>     6.7624     0.0000    10.0000 </r>
       <r>     6.8369     0.0000    10.0000 </r>
       <r>     6.9114     0.0000    10.0000 </r>
       <r>     6.9858     0.0000    10.0000 </r>
       <r>     7.0603     0.0000    10.0000 </r>
       <r>     7.1348     0.0000    10.0000 </r>
       <r>     7.2092     0.0000    10.0000 </r>
       <r>     7.2837     0.0000    10.0000 </r>
       <r>     7.3582     0.0000    10.0000 </r>
       <r>     7.4326     0.0000    10.0000 </r>
       <r>     7.5071     0.0000    10.0000 </r>
       <r>     7.5816     0.0000    10.0000 </r>
       <r>     7.6560     0.0000    10.0000 </r>
       <r>     7.7305     0.0000    10.0000 </r>
       <r>     7.8050     0.0000    10.0000 </r>
       <r>     7.8794     0.0000    10.0000 </r>
       <r>     7.9539     0.0000    10.0000 </r>
       <r>     8.0284     0.0000    10.0000 </r>
       <r>     8.1028     0.0000    10.0000 </r>
       <r>     8.1773     0.0000    10.0000 </r>
       <r>     8.2518     0.0000    10.0000 </r>
       <r>     8.3262     0.0000    10.0000 </r>
       <r>     8.4007     0.0000    10.0000 </r>
       <r>     8.4752     0.0000    10.0000 </r>
       <r>     8.5496     0.0000    10.0000 </r>
       <r>     8.6241     0.0000    10.0000 </r>
       <r>     8.6986     0.0000    10.0000 </r>
       <r>     8.7730     0.0002    10.0000 </r>
       <r>     8.8475     0.0020    10.0002 </r>
       <r>     8.9220     0.0141    10.0012 </r>
       <r>     8.9964     0.0745    10.0068 </r>
       <r>     9.0709     0.3006    10.0292 </r>
       <r>     9.1454     0.9240    10.0980 </r>
       <r>     9.2198     2.1654    10.2592 </r>
       <r>     9.2943     3.8697    10.5474 </r>
       <r>     9.3688     5.2739    10.9401 </r>
       <r>     9.4433     5.4818    11.3483 </r>
       <r>     9.5177     4.3455    11.6719 </r>
       <r>     9.5922     2.6272    11.8676 </r>
       <r>     9.6667     1.2112    11.9578 </r>
       <r>     9.7411     0.4258    11.9895 </r>
       <r>     9.8156     0.1141    11.9980 </r>
       <r>     9.8901     0.0233    11.9997 </r>
       <r>     9.9645     0.0036    12.0000 </r>
       <r>    10.0390     0.0004    12.0000 </r>
       <r>    10.1135     0.0000    12.0000 </r>
       <r>    10.1879     0.0000    12.0000 </r>
       <r>    10.2624     0.0000    12.0000 </r>
       <r>    10.3369     0.0000    12.0000 </r>
       <r>    10.4113     0.0000    12.0000 </r>
       <r>    10.4858     0.0000    12.0000 </r>
       <r>    10.5603     0.0000    12.0000 </r>
       <r>    10.6347     0.0000    12.0000 </r>
       <r>    10.7092     0.0000    12.0000 </r>
       <r>    10.7837     0.0000    12.0000 </r>
       <r>    10.8581     0.0000    12.0000 </r>
       <r>    10.9326     0.0000    12.0000 </r>
       <r>    11.0071     0.0000    12.0000 </r>
       <r>    11.0815     0.0000    12.0000 </r>
       <r>    11.1560     0.0000    12.0000 </r>
       <r>    11.2305     0.0000    12.0000 </r>
       <r>    11.3049     0.0000    12.0000 </r>
       <r>    11.3794     0.0000    12.0000 </r>
      </set>
     </set>
    </array>
   </total>
  </dos>
 </calculation>
 <structure name="finalpos" >
  <crystal>
   <varray name="basis" >
    <v>       3.32500005       0.00000000       0.00000000 </v>
    <v>       0.00000000       3.32500005       0.00000000 </v>
    <v>       0.00000000       0.00000000       3.32500005 </v>
   </varray>
   <i name="volume">     36.75995471 </i>
   <varray name="rec_basis" >
    <v>       0.30075188       0.00000000       0.00000000 </v>
    <v>       0.00000000       0.30075188       0.00000000 </v>
    <v>       0.00000000       0.00000000       0.30075188 </v>
   </varray>
  </crystal>
  <varray name="positions" >
   <v>       0.83617801       0.50000000       0.50000000 </v>
   <v>       0.16382197       0.50000000       0.50000000 </v>
   <v>       0.50000000       0.50000000       0.50000000 </v>
  </varray>
 </structure>
</modeling>
