unknown system                          
           1
     3.325000    0.000000    0.000000
     0.000000    3.325000    0.000000
     0.000000    0.000000    3.325000
   H    Be
     2     1
Direct configuration=     1
   0.89999998  0.50000000  0.50000000
   0.09999999  0.50000000  0.50000000
   0.50000000  0.50000000  0.50000000
unknown system                          
           1
     4.417046    0.000000    0.000000
     0.000000    3.084959    0.000000
     0.000000    0.000000    3.084959
   H    Be
     2     1
Direct configuration=     2
   0.84251816  0.50000000  0.50000000
   0.15748181  0.50000000  0.50000000
   0.50000000  0.50000000  0.50000000
unknown system                          
           1
     4.692978    0.000000    0.000000
     0.000000    3.024308    0.000000
     0.000000    0.000000    3.024308
   H    Be
     2     1
Direct configuration=     3
   0.83158489  0.50000000  0.50000000
   0.16841508  0.50000000  0.50000000
   0.50000000  0.50000000  0.50000000
unknown system                          
           1
     5.244840    0.000000    0.000000
     0.000000    2.903004    0.000000
     0.000000    0.000000    2.903004
   H    Be
     2     1
Direct configuration=     4
   0.81100401  0.50000000  0.50000000
   0.18899596  0.50000000  0.50000000
   0.50000000  0.50000000  0.50000000
unknown system                          
           1
     5.244840    0.000000    0.000000
     0.000000    2.903004    0.000000
     0.000000    0.000000    2.903004
   H    Be
     2     1
Direct configuration=     4
   0.81100401  0.50000000  0.50000000
   0.18899596  0.50000000  0.50000000
   0.50000000  0.50000000  0.50000000
unknown system                          
           1
     6.348566    0.000000    0.000000
     0.000000    2.660396    0.000000
     0.000000    0.000000    2.660396
   H    Be
     2     1
Direct configuration=     5
   0.77417331  0.50000000  0.50000000
   0.22582666  0.50000000  0.50000000
   0.50000000  0.50000000  0.50000000
