unknown system                          
           1
     3.325000    0.000000    0.000000
     0.000000    3.325000    0.000000
     0.000000    0.000000    3.325000
   H    Be
     2     1
Direct configuration=     1
   0.89999998  0.50000000  0.50000000
   0.09999999  0.50000000  0.50000000
   0.50000000  0.50000000  0.50000000
Direct configuration=     2
   0.84271006  0.50000000  0.50000000
   0.15728991  0.50000000  0.50000000
   0.50000000  0.50000000  0.50000000
Direct configuration=     3
   0.67084031  0.50000000  0.50000000
   0.32915966  0.50000000  0.50000000
   0.50000000  0.50000000  0.50000000
Direct configuration=     3
   0.67084031  0.50000000  0.50000000
   0.32915966  0.50000000  0.50000000
   0.50000000  0.50000000  0.50000000
Direct configuration=     4
   0.83617801  0.50000000  0.50000000
   0.16382197  0.50000000  0.50000000
   0.50000000  0.50000000  0.50000000
Direct configuration=     4
   0.83617801  0.50000000  0.50000000
   0.16382197  0.50000000  0.50000000
   0.50000000  0.50000000  0.50000000
