unknown system                          
           1
    10.325000    0.000000    0.000000
     0.000000   10.325000    0.000000
     0.000000    0.000000   10.325000
   H    Be
     2     1
Direct configuration=     1
   0.28983050  0.16101695  0.16101695
   0.03220339  0.16101695  0.16101695
   0.16101695  0.16101695  0.16101695
unknown system                          
           1
    10.387017   -0.000000    0.000000
     0.000000   10.256780   -0.000000
     0.000000    0.000000   10.256780
   H    Be
     2     1
Direct configuration=     2
   0.29019974  0.16101695  0.16101695
   0.03183415  0.16101695  0.16101695
   0.16101695  0.16101695  0.16101695
unknown system                          
           1
    10.383395    0.000000    0.000000
     0.000000   10.262281   -0.000000
    -0.000000   -0.000000   10.262281
   H    Be
     2     1
Direct configuration=     3
   0.29016045  0.16101695  0.16101695
   0.03187344  0.16101695  0.16101695
   0.16101695  0.16101695  0.16101695
