   3   3   0   0
  0.2666667E+04  0.2000000E-08  0.2000000E-08  0.2000000E-08  0.5000000E-15
   1.0000000000000000E-004
  CAR 
 unknown system                          
      1.19571730     -9.38386273  301     -6.98579015      1.00000000
     -9.384  0.0000E+00  0.0000E+00
     -9.349  0.0000E+00  0.0000E+00
     -9.313  0.0000E+00  0.0000E+00
     -9.278  0.0000E+00  0.0000E+00
     -9.243  0.0000E+00  0.0000E+00
     -9.208  0.0000E+00  0.0000E+00
     -9.172  0.0000E+00  0.0000E+00
     -9.137  0.0000E+00  0.0000E+00
     -9.102  0.0000E+00  0.0000E+00
     -9.066  0.0000E+00  0.0000E+00
     -9.031  0.0000E+00  0.0000E+00
     -8.996  0.0000E+00  0.0000E+00
     -8.961  0.9445E-14  0.3331E-15
     -8.925  0.5226E-12  0.1876E-13
     -8.890  0.2235E-10  0.8069E-12
     -8.855  0.7471E-09  0.2715E-10
     -8.820  0.1953E-07  0.7160E-09
     -8.784  0.3996E-06  0.1481E-07
     -8.749  0.6396E-05  0.2404E-06
     -8.714  0.8013E-04  0.3066E-05
     -8.679  0.7859E-03  0.3078E-04
     -8.643  0.6035E-02  0.2436E-03
     -8.608  0.3629E-01  0.1524E-02
     -8.573  0.1710E+00  0.7553E-02
     -8.537  0.6309E+00  0.2980E-01
     -8.502  0.1824E+01  0.9413E-01
     -8.467  0.4133E+01  0.2399E+00
     -8.432  0.7339E+01  0.4987E+00
     -8.396  0.1021E+02  0.8589E+00
     -8.361  0.1114E+02  0.1252E+01
     -8.326  0.9524E+01  0.1588E+01
     -8.291  0.6381E+01  0.1813E+01
     -8.255  0.3351E+01  0.1931E+01
     -8.220  0.1379E+01  0.1979E+01
     -8.185  0.4447E+00  0.1995E+01
     -8.150  0.1124E+00  0.1999E+01
     -8.114  0.2224E-01  0.2000E+01
     -8.079  0.3447E-02  0.2000E+01
     -8.044  0.4185E-03  0.2000E+01
     -8.009  0.3977E-04  0.2000E+01
     -7.973  0.2959E-05  0.2000E+01
     -7.938  0.1727E-06  0.2000E+01
     -7.903  0.1962E-07  0.2000E+01
     -7.867  0.2508E-06  0.2000E+01
     -7.832  0.4170E-05  0.2000E+01
     -7.797  0.5433E-04  0.2000E+01
     -7.762  0.5542E-03  0.2000E+01
     -7.726  0.4426E-02  0.2000E+01
     -7.691  0.2768E-01  0.2001E+01
     -7.656  0.1356E+00  0.2006E+01
     -7.621  0.5203E+00  0.2024E+01
     -7.585  0.1564E+01  0.2079E+01
     -7.550  0.3686E+01  0.2209E+01
     -7.515  0.6805E+01  0.2449E+01
     -7.480  0.9847E+01  0.2797E+01
     -7.444  0.1117E+02  0.3190E+01
     -7.409  0.9927E+01  0.3541E+01
     -7.374  0.6916E+01  0.3784E+01
     -7.338  0.3777E+01  0.3918E+01
     -7.303  0.1616E+01  0.3975E+01
     -7.268  0.5419E+00  0.3994E+01
     -7.233  0.1424E+00  0.3999E+01
     -7.197  0.2930E-01  0.4000E+01
     -7.162  0.4724E-02  0.4000E+01
     -7.127  0.5964E-03  0.4000E+01
     -7.092  0.5895E-04  0.4000E+01
     -7.056  0.4561E-05  0.4000E+01
     -7.021  0.2762E-06  0.4000E+01
     -6.986  0.1309E-07  0.4000E+01
     -6.951  0.4853E-09  0.4000E+01
     -6.915  0.1407E-10  0.4000E+01
     -6.880  0.3211E-12  0.4000E+01
     -6.845  0.6296E-14  0.4000E+01
     -6.809  0.0000E+00  0.4000E+01
     -6.774  0.0000E+00  0.4000E+01
     -6.739  0.0000E+00  0.4000E+01
     -6.704  0.0000E+00  0.4000E+01
     -6.668  0.0000E+00  0.4000E+01
     -6.633  0.0000E+00  0.4000E+01
     -6.598  0.0000E+00  0.4000E+01
     -6.563  0.0000E+00  0.4000E+01
     -6.527  0.0000E+00  0.4000E+01
     -6.492  0.0000E+00  0.4000E+01
     -6.457  0.0000E+00  0.4000E+01
     -6.422  0.0000E+00  0.4000E+01
     -6.386  0.0000E+00  0.4000E+01
     -6.351  0.0000E+00  0.4000E+01
     -6.316  0.0000E+00  0.4000E+01
     -6.281  0.0000E+00  0.4000E+01
     -6.245  0.0000E+00  0.4000E+01
     -6.210  0.0000E+00  0.4000E+01
     -6.175  0.0000E+00  0.4000E+01
     -6.139  0.0000E+00  0.4000E+01
     -6.104  0.0000E+00  0.4000E+01
     -6.069  0.0000E+00  0.4000E+01
     -6.034  0.0000E+00  0.4000E+01
     -5.998  0.0000E+00  0.4000E+01
     -5.963  0.0000E+00  0.4000E+01
     -5.928  0.0000E+00  0.4000E+01
     -5.893  0.0000E+00  0.4000E+01
     -5.857  0.0000E+00  0.4000E+01
     -5.822  0.0000E+00  0.4000E+01
     -5.787  0.0000E+00  0.4000E+01
     -5.752  0.0000E+00  0.4000E+01
     -5.716  0.0000E+00  0.4000E+01
     -5.681  0.0000E+00  0.4000E+01
     -5.646  0.0000E+00  0.4000E+01
     -5.610  0.0000E+00  0.4000E+01
     -5.575  0.0000E+00  0.4000E+01
     -5.540  0.0000E+00  0.4000E+01
     -5.505  0.0000E+00  0.4000E+01
     -5.469  0.0000E+00  0.4000E+01
     -5.434  0.0000E+00  0.4000E+01
     -5.399  0.0000E+00  0.4000E+01
     -5.364  0.0000E+00  0.4000E+01
     -5.328  0.0000E+00  0.4000E+01
     -5.293  0.0000E+00  0.4000E+01
     -5.258  0.0000E+00  0.4000E+01
     -5.223  0.0000E+00  0.4000E+01
     -5.187  0.0000E+00  0.4000E+01
     -5.152  0.0000E+00  0.4000E+01
     -5.117  0.0000E+00  0.4000E+01
     -5.082  0.0000E+00  0.4000E+01
     -5.046  0.0000E+00  0.4000E+01
     -5.011  0.0000E+00  0.4000E+01
     -4.976  0.0000E+00  0.4000E+01
     -4.940  0.0000E+00  0.4000E+01
     -4.905  0.0000E+00  0.4000E+01
     -4.870  0.0000E+00  0.4000E+01
     -4.835  0.0000E+00  0.4000E+01
     -4.799  0.0000E+00  0.4000E+01
     -4.764  0.0000E+00  0.4000E+01
     -4.729  0.0000E+00  0.4000E+01
     -4.694  0.0000E+00  0.4000E+01
     -4.658  0.0000E+00  0.4000E+01
     -4.623  0.0000E+00  0.4000E+01
     -4.588  0.0000E+00  0.4000E+01
     -4.553  0.0000E+00  0.4000E+01
     -4.517  0.0000E+00  0.4000E+01
     -4.482  0.0000E+00  0.4000E+01
     -4.447  0.0000E+00  0.4000E+01
     -4.411  0.0000E+00  0.4000E+01
     -4.376  0.0000E+00  0.4000E+01
     -4.341  0.0000E+00  0.4000E+01
     -4.306  0.0000E+00  0.4000E+01
     -4.270  0.0000E+00  0.4000E+01
     -4.235  0.0000E+00  0.4000E+01
     -4.200  0.0000E+00  0.4000E+01
     -4.165  0.0000E+00  0.4000E+01
     -4.129  0.0000E+00  0.4000E+01
     -4.094  0.0000E+00  0.4000E+01
     -4.059  0.0000E+00  0.4000E+01
     -4.024  0.0000E+00  0.4000E+01
     -3.988  0.0000E+00  0.4000E+01
     -3.953  0.0000E+00  0.4000E+01
     -3.918  0.0000E+00  0.4000E+01
     -3.882  0.0000E+00  0.4000E+01
     -3.847  0.0000E+00  0.4000E+01
     -3.812  0.0000E+00  0.4000E+01
     -3.777  0.0000E+00  0.4000E+01
     -3.741  0.0000E+00  0.4000E+01
     -3.706  0.0000E+00  0.4000E+01
     -3.671  0.0000E+00  0.4000E+01
     -3.636  0.0000E+00  0.4000E+01
     -3.600  0.0000E+00  0.4000E+01
     -3.565  0.0000E+00  0.4000E+01
     -3.530  0.0000E+00  0.4000E+01
     -3.495  0.0000E+00  0.4000E+01
     -3.459  0.0000E+00  0.4000E+01
     -3.424  0.0000E+00  0.4000E+01
     -3.389  0.0000E+00  0.4000E+01
     -3.354  0.0000E+00  0.4000E+01
     -3.318  0.0000E+00  0.4000E+01
     -3.283  0.0000E+00  0.4000E+01
     -3.248  0.0000E+00  0.4000E+01
     -3.212  0.0000E+00  0.4000E+01
     -3.177  0.0000E+00  0.4000E+01
     -3.142  0.0000E+00  0.4000E+01
     -3.107  0.0000E+00  0.4000E+01
     -3.071  0.0000E+00  0.4000E+01
     -3.036  0.0000E+00  0.4000E+01
     -3.001  0.0000E+00  0.4000E+01
     -2.966  0.0000E+00  0.4000E+01
     -2.930  0.0000E+00  0.4000E+01
     -2.895  0.0000E+00  0.4000E+01
     -2.860  0.0000E+00  0.4000E+01
     -2.825  0.0000E+00  0.4000E+01
     -2.789  0.0000E+00  0.4000E+01
     -2.754  0.0000E+00  0.4000E+01
     -2.719  0.0000E+00  0.4000E+01
     -2.683  0.0000E+00  0.4000E+01
     -2.648  0.0000E+00  0.4000E+01
     -2.613  0.0000E+00  0.4000E+01
     -2.578  0.0000E+00  0.4000E+01
     -2.542  0.0000E+00  0.4000E+01
     -2.507  0.0000E+00  0.4000E+01
     -2.472  0.0000E+00  0.4000E+01
     -2.437  0.0000E+00  0.4000E+01
     -2.401  0.0000E+00  0.4000E+01
     -2.366  0.0000E+00  0.4000E+01
     -2.331  0.0000E+00  0.4000E+01
     -2.296  0.0000E+00  0.4000E+01
     -2.260  0.0000E+00  0.4000E+01
     -2.225  0.0000E+00  0.4000E+01
     -2.190  0.0000E+00  0.4000E+01
     -2.154  0.7556E-13  0.4000E+01
     -2.119  0.3614E-11  0.4000E+01
     -2.084  0.1428E-09  0.4000E+01
     -2.049  0.4407E-08  0.4000E+01
     -2.013  0.1064E-06  0.4000E+01
     -1.978  0.2011E-05  0.4000E+01
     -1.943  0.2975E-04  0.4000E+01
     -1.908  0.3443E-03  0.4000E+01
     -1.872  0.3120E-02  0.4000E+01
     -1.837  0.2214E-01  0.4001E+01
     -1.802  0.1230E+00  0.4005E+01
     -1.767  0.5356E+00  0.4024E+01
     -1.731  0.1827E+01  0.4089E+01
     -1.696  0.4881E+01  0.4261E+01
     -1.661  0.1022E+02  0.4621E+01
     -1.626  0.1677E+02  0.5213E+01
     -1.590  0.2158E+02  0.5973E+01
     -1.555  0.2175E+02  0.6741E+01
     -1.520  0.1719E+02  0.7347E+01
     -1.484  0.1064E+02  0.7722E+01
     -1.449  0.5166E+01  0.7904E+01
     -1.414  0.1965E+01  0.7974E+01
     -1.379  0.5856E+00  0.7994E+01
     -1.343  0.1367E+00  0.7999E+01
     -1.308  0.2501E-01  0.8000E+01
     -1.273  0.3582E-02  0.8000E+01
     -1.238  0.4018E-03  0.8000E+01
     -1.202  0.3528E-04  0.8000E+01
     -1.167  0.2425E-05  0.8000E+01
     -1.132  0.1304E-06  0.8000E+01
     -1.097  0.5490E-08  0.8000E+01
     -1.061  0.1808E-09  0.8000E+01
     -1.026  0.4647E-11  0.8000E+01
     -0.991  0.1007E-12  0.8000E+01
     -0.955  0.0000E+00  0.8000E+01
     -0.920  0.0000E+00  0.8000E+01
     -0.885  0.0000E+00  0.8000E+01
     -0.850  0.0000E+00  0.8000E+01
     -0.814  0.0000E+00  0.8000E+01
     -0.779  0.0000E+00  0.8000E+01
     -0.744  0.0000E+00  0.8000E+01
     -0.709  0.0000E+00  0.8000E+01
     -0.673  0.7556E-13  0.8000E+01
     -0.638  0.3526E-11  0.8000E+01
     -0.603  0.1333E-09  0.8000E+01
     -0.568  0.3940E-08  0.8000E+01
     -0.532  0.9111E-07  0.8000E+01
     -0.497  0.1649E-05  0.8000E+01
     -0.462  0.2335E-04  0.8000E+01
     -0.426  0.2588E-03  0.8000E+01
     -0.391  0.2246E-02  0.8000E+01
     -0.356  0.1526E-01  0.8001E+01
     -0.321  0.8122E-01  0.8003E+01
     -0.285  0.3386E+00  0.8015E+01
     -0.250  0.1106E+01  0.8054E+01
     -0.215  0.2831E+01  0.8154E+01
     -0.180  0.5678E+01  0.8355E+01
     -0.144  0.8926E+01  0.8669E+01
     -0.109  0.1100E+02  0.9057E+01
     -0.074  0.1062E+02  0.9432E+01
     -0.039  0.8059E+01  0.9716E+01
     -0.003  0.4880E+01  0.9888E+01
      0.032  0.2661E+01  0.9982E+01
      0.067  0.2186E+01  0.1006E+02
      0.102  0.3582E+01  0.1019E+02
      0.138  0.6433E+01  0.1041E+02
      0.173  0.9533E+01  0.1075E+02
      0.208  0.1114E+02  0.1114E+02
      0.244  0.1021E+02  0.1150E+02
      0.279  0.7339E+01  0.1176E+02
      0.314  0.4133E+01  0.1191E+02
      0.349  0.1824E+01  0.1197E+02
      0.385  0.6309E+00  0.1199E+02
      0.420  0.1710E+00  0.1200E+02
      0.455  0.3629E-01  0.1200E+02
      0.490  0.6035E-02  0.1200E+02
      0.526  0.7859E-03  0.1200E+02
      0.561  0.8013E-04  0.1200E+02
      0.596  0.6396E-05  0.1200E+02
      0.631  0.3996E-06  0.1200E+02
      0.667  0.1953E-07  0.1200E+02
      0.702  0.7471E-09  0.1200E+02
      0.737  0.2235E-10  0.1200E+02
      0.773  0.5163E-12  0.1200E+02
      0.808  0.1259E-13  0.1200E+02
      0.843  0.0000E+00  0.1200E+02
      0.878  0.0000E+00  0.1200E+02
      0.914  0.0000E+00  0.1200E+02
      0.949  0.0000E+00  0.1200E+02
      0.984  0.0000E+00  0.1200E+02
      1.019  0.0000E+00  0.1200E+02
      1.055  0.0000E+00  0.1200E+02
      1.090  0.0000E+00  0.1200E+02
      1.125  0.0000E+00  0.1200E+02
      1.160  0.0000E+00  0.1200E+02
      1.196  0.0000E+00  0.1200E+02
