   3   3   0   0
  0.3333333E+03  0.1000000E-08  0.1000000E-08  0.1000000E-08  0.5000000E-15
   1.0000000000000000E-004
  CAR 
 unknown system                          
      1.67343621     -9.27668380  301     -6.83108571      1.00000000
     -9.277  0.0000E+00  0.0000E+00
     -9.240  0.0000E+00  0.0000E+00
     -9.204  0.0000E+00  0.0000E+00
     -9.167  0.0000E+00  0.0000E+00
     -9.131  0.0000E+00  0.0000E+00
     -9.094  0.0000E+00  0.0000E+00
     -9.058  0.0000E+00  0.0000E+00
     -9.021  0.0000E+00  0.0000E+00
     -8.985  0.0000E+00  0.0000E+00
     -8.948  0.0000E+00  0.0000E+00
     -8.912  0.0000E+00  0.0000E+00
     -8.875  0.0000E+00  0.0000E+00
     -8.839  0.5171E-13  0.1887E-14
     -8.802  0.2887E-11  0.1072E-12
     -8.766  0.1249E-09  0.4665E-11
     -8.729  0.4151E-08  0.1562E-09
     -8.693  0.1061E-06  0.4028E-08
     -8.656  0.2085E-05  0.8013E-07
     -8.620  0.3152E-04  0.1231E-05
     -8.583  0.3666E-03  0.1461E-04
     -8.547  0.3282E-02  0.1344E-03
     -8.510  0.2261E-01  0.9597E-03
     -8.474  0.1200E+00  0.5338E-02
     -8.437  0.4901E+00  0.2323E-01
     -8.401  0.1542E+01  0.7952E-01
     -8.364  0.3739E+01  0.2160E+00
     -8.328  0.6983E+01  0.4708E+00
     -8.291  0.1005E+02  0.8376E+00
     -8.255  0.1114E+02  0.1244E+01
     -8.218  0.9524E+01  0.1592E+01
     -8.182  0.6271E+01  0.1821E+01
     -8.145  0.3182E+01  0.1937E+01
     -8.109  0.1244E+01  0.1983E+01
     -8.072  0.3746E+00  0.1996E+01
     -8.036  0.8689E-01  0.1999E+01
     -7.999  0.1552E-01  0.2000E+01
     -7.963  0.2134E-02  0.2000E+01
     -7.926  0.2259E-03  0.2000E+01
     -7.890  0.1840E-04  0.2000E+01
     -7.853  0.1153E-05  0.2000E+01
     -7.817  0.5558E-07  0.2000E+01
     -7.780  0.2194E-08  0.2000E+01
     -7.744  0.4503E-08  0.2000E+01
     -7.707  0.1130E-06  0.2000E+01
     -7.671  0.2209E-05  0.2000E+01
     -7.634  0.3322E-04  0.2000E+01
     -7.598  0.3843E-03  0.2000E+01
     -7.561  0.3422E-02  0.2000E+01
     -7.525  0.2345E-01  0.2001E+01
     -7.488  0.1238E+00  0.2006E+01
     -7.452  0.5029E+00  0.2024E+01
     -7.415  0.1574E+01  0.2081E+01
     -7.379  0.3796E+01  0.2220E+01
     -7.342  0.7053E+01  0.2477E+01
     -7.306  0.1010E+02  0.2846E+01
     -7.269  0.1114E+02  0.3252E+01
     -7.233  0.9468E+01  0.3598E+01
     -7.196  0.6202E+01  0.3824E+01
     -7.160  0.3130E+01  0.3939E+01
     -7.123  0.1217E+01  0.3983E+01
     -7.087  0.3646E+00  0.3996E+01
     -7.050  0.8412E-01  0.3999E+01
     -7.014  0.1495E-01  0.4000E+01
     -6.977  0.2044E-02  0.4000E+01
     -6.941  0.2152E-03  0.4000E+01
     -6.904  0.1744E-04  0.4000E+01
     -6.868  0.1087E-05  0.4000E+01
     -6.831  0.5212E-07  0.4000E+01
     -6.795  0.1921E-08  0.4000E+01
     -6.758  0.5446E-10  0.4000E+01
     -6.722  0.1180E-11  0.4000E+01
     -6.685  0.2433E-13  0.4000E+01
     -6.649  0.0000E+00  0.4000E+01
     -6.612  0.0000E+00  0.4000E+01
     -6.576  0.0000E+00  0.4000E+01
     -6.539  0.0000E+00  0.4000E+01
     -6.503  0.0000E+00  0.4000E+01
     -6.466  0.0000E+00  0.4000E+01
     -6.430  0.0000E+00  0.4000E+01
     -6.393  0.0000E+00  0.4000E+01
     -6.357  0.0000E+00  0.4000E+01
     -6.320  0.0000E+00  0.4000E+01
     -6.284  0.0000E+00  0.4000E+01
     -6.247  0.0000E+00  0.4000E+01
     -6.211  0.0000E+00  0.4000E+01
     -6.174  0.0000E+00  0.4000E+01
     -6.138  0.0000E+00  0.4000E+01
     -6.101  0.0000E+00  0.4000E+01
     -6.065  0.0000E+00  0.4000E+01
     -6.028  0.0000E+00  0.4000E+01
     -5.992  0.0000E+00  0.4000E+01
     -5.955  0.0000E+00  0.4000E+01
     -5.919  0.0000E+00  0.4000E+01
     -5.882  0.0000E+00  0.4000E+01
     -5.846  0.0000E+00  0.4000E+01
     -5.809  0.0000E+00  0.4000E+01
     -5.773  0.0000E+00  0.4000E+01
     -5.736  0.0000E+00  0.4000E+01
     -5.700  0.0000E+00  0.4000E+01
     -5.663  0.0000E+00  0.4000E+01
     -5.627  0.0000E+00  0.4000E+01
     -5.590  0.0000E+00  0.4000E+01
     -5.554  0.0000E+00  0.4000E+01
     -5.517  0.0000E+00  0.4000E+01
     -5.481  0.0000E+00  0.4000E+01
     -5.444  0.0000E+00  0.4000E+01
     -5.408  0.0000E+00  0.4000E+01
     -5.371  0.0000E+00  0.4000E+01
