   3   3   0   0
  0.2666667E+04  0.2000000E-08  0.2000000E-08  0.2000000E-08  0.5000000E-15
   1.0000000000000000E-004
  CAR 
 unknown system                          
      1.22125294     -9.40493867  301     -6.96084542      1.00000000
     -9.405  0.0000E+00  0.0000E+00
     -9.370  0.0000E+00  0.0000E+00
     -9.334  0.0000E+00  0.0000E+00
     -9.299  0.0000E+00  0.0000E+00
     -9.263  0.0000E+00  0.0000E+00
     -9.228  0.0000E+00  0.0000E+00
     -9.192  0.0000E+00  0.0000E+00
     -9.157  0.0000E+00  0.0000E+00
     -9.122  0.0000E+00  0.0000E+00
     -9.086  0.0000E+00  0.0000E+00
     -9.051  0.0000E+00  0.0000E+00
     -9.015  0.0000E+00  0.0000E+00
     -8.980  0.1254E-13  0.4441E-15
     -8.944  0.6488E-12  0.2343E-13
     -8.909  0.2784E-10  0.1010E-11
     -8.874  0.9303E-09  0.3396E-10
     -8.838  0.2427E-07  0.8935E-09
     -8.803  0.4942E-06  0.1840E-07
     -8.767  0.7858E-05  0.2967E-06
     -8.732  0.9759E-04  0.3753E-05
     -8.697  0.9468E-03  0.3729E-04
     -8.661  0.7177E-02  0.2915E-03
     -8.626  0.4251E-01  0.1797E-02
     -8.590  0.1968E+00  0.8770E-02
     -8.555  0.7125E+00  0.3401E-01
     -8.519  0.2017E+01  0.1054E+00
     -8.484  0.4463E+01  0.2635E+00
     -8.449  0.7724E+01  0.5371E+00
     -8.413  0.1046E+02  0.9074E+00
     -8.378  0.1107E+02  0.1299E+01
     -8.342  0.9166E+01  0.1624E+01
     -8.307  0.5936E+01  0.1834E+01
     -8.271  0.3007E+01  0.1941E+01
     -8.236  0.1191E+01  0.1983E+01
     -8.201  0.3688E+00  0.1996E+01
     -8.165  0.8930E-01  0.1999E+01
     -8.130  0.1690E-01  0.2000E+01
     -8.094  0.2500E-02  0.2000E+01
     -8.059  0.2890E-03  0.2000E+01
     -8.024  0.2610E-04  0.2000E+01
     -7.988  0.1841E-05  0.2000E+01
     -7.953  0.1014E-06  0.2000E+01
     -7.917  0.4457E-08  0.2000E+01
     -7.882  0.3096E-08  0.2000E+01
     -7.846  0.7063E-07  0.2000E+01
     -7.811  0.1320E-05  0.2000E+01
     -7.776  0.1928E-04  0.2000E+01
     -7.740  0.2199E-03  0.2000E+01
     -7.705  0.1959E-02  0.2000E+01
     -7.669  0.1364E-01  0.2001E+01
     -7.634  0.7420E-01  0.2003E+01
     -7.598  0.3155E+00  0.2014E+01
     -7.563  0.1049E+01  0.2052E+01
     -7.528  0.2728E+01  0.2148E+01
     -7.492  0.5545E+01  0.2345E+01
     -7.457  0.8816E+01  0.2657E+01
     -7.421  0.1096E+02  0.3045E+01
     -7.386  0.1066E+02  0.3423E+01
     -7.351  0.8111E+01  0.3710E+01
     -7.315  0.4826E+01  0.3881E+01
     -7.280  0.2245E+01  0.3961E+01
     -7.244  0.8170E+00  0.3990E+01
     -7.209  0.2324E+00  0.3998E+01
     -7.173  0.5169E-01  0.4000E+01
     -7.138  0.8985E-02  0.4000E+01
     -7.103  0.1221E-02  0.4000E+01
     -7.067  0.1296E-03  0.4000E+01
     -7.032  0.1074E-04  0.4000E+01
     -6.996  0.6959E-06  0.4000E+01
     -6.961  0.3520E-07  0.4000E+01
     -6.925  0.1390E-08  0.4000E+01
     -6.890  0.4283E-10  0.4000E+01
     -6.855  0.1034E-11  0.4000E+01
     -6.819  0.1881E-13  0.4000E+01
     -6.784  0.0000E+00  0.4000E+01
     -6.748  0.0000E+00  0.4000E+01
     -6.713  0.0000E+00  0.4000E+01
     -6.678  0.0000E+00  0.4000E+01
     -6.642  0.0000E+00  0.4000E+01
     -6.607  0.0000E+00  0.4000E+01
     -6.571  0.0000E+00  0.4000E+01
     -6.536  0.0000E+00  0.4000E+01
     -6.500  0.0000E+00  0.4000E+01
     -6.465  0.0000E+00  0.4000E+01
     -6.430  0.0000E+00  0.4000E+01
     -6.394  0.0000E+00  0.4000E+01
     -6.359  0.0000E+00  0.4000E+01
     -6.323  0.0000E+00  0.4000E+01
     -6.288  0.0000E+00  0.4000E+01
     -6.253  0.0000E+00  0.4000E+01
     -6.217  0.0000E+00  0.4000E+01
     -6.182  0.0000E+00  0.4000E+01
     -6.146  0.0000E+00  0.4000E+01
     -6.111  0.0000E+00  0.4000E+01
     -6.075  0.0000E+00  0.4000E+01
     -6.040  0.0000E+00  0.4000E+01
     -6.005  0.0000E+00  0.4000E+01
     -5.969  0.0000E+00  0.4000E+01
     -5.934  0.0000E+00  0.4000E+01
     -5.898  0.0000E+00  0.4000E+01
     -5.863  0.0000E+00  0.4000E+01
     -5.827  0.0000E+00  0.4000E+01
     -5.792  0.0000E+00  0.4000E+01
     -5.757  0.0000E+00  0.4000E+01
     -5.721  0.0000E+00  0.4000E+01
     -5.686  0.0000E+00  0.4000E+01
     -5.650  0.0000E+00  0.4000E+01
     -5.615  0.0000E+00  0.4000E+01
     -5.580  0.0000E+00  0.4000E+01
     -5.544  0.0000E+00  0.4000E+01
     -5.509  0.0000E+00  0.4000E+01
     -5.473  0.0000E+00  0.4000E+01
     -5.438  0.0000E+00  0.4000E+01
     -5.402  0.0000E+00  0.4000E+01
     -5.367  0.0000E+00  0.4000E+01
     -5.332  0.0000E+00  0.4000E+01
     -5.296  0.0000E+00  0.4000E+01
     -5.261  0.0000E+00  0.4000E+01
     -5.225  0.0000E+00  0.4000E+01
     -5.190  0.0000E+00  0.4000E+01
     -5.154  0.0000E+00  0.4000E+01
     -5.119  0.0000E+00  0.4000E+01
     -5.084  0.0000E+00  0.4000E+01
     -5.048  0.0000E+00  0.4000E+01
     -5.013  0.0000E+00  0.4000E+01
     -4.977  0.0000E+00  0.4000E+01
     -4.942  0.0000E+00  0.4000E+01
     -4.907  0.0000E+00  0.4000E+01
     -4.871  0.0000E+00  0.4000E+01
     -4.836  0.0000E+00  0.4000E+01
     -4.800  0.0000E+00  0.4000E+01
     -4.765  0.0000E+00  0.4000E+01
     -4.729  0.0000E+00  0.4000E+01
     -4.694  0.0000E+00  0.4000E+01
     -4.659  0.0000E+00  0.4000E+01
     -4.623  0.0000E+00  0.4000E+01
     -4.588  0.0000E+00  0.4000E+01
     -4.552  0.0000E+00  0.4000E+01
     -4.517  0.0000E+00  0.4000E+01
     -4.481  0.0000E+00  0.4000E+01
     -4.446  0.0000E+00  0.4000E+01
     -4.411  0.0000E+00  0.4000E+01
     -4.375  0.0000E+00  0.4000E+01
     -4.340  0.0000E+00  0.4000E+01
     -4.304  0.0000E+00  0.4000E+01
     -4.269  0.0000E+00  0.4000E+01
     -4.234  0.0000E+00  0.4000E+01
     -4.198  0.0000E+00  0.4000E+01
     -4.163  0.0000E+00  0.4000E+01
     -4.127  0.0000E+00  0.4000E+01
     -4.092  0.0000E+00  0.4000E+01
     -4.056  0.0000E+00  0.4000E+01
     -4.021  0.0000E+00  0.4000E+01
     -3.986  0.0000E+00  0.4000E+01
     -3.950  0.0000E+00  0.4000E+01
     -3.915  0.0000E+00  0.4000E+01
     -3.879  0.0000E+00  0.4000E+01
     -3.844  0.0000E+00  0.4000E+01
     -3.808  0.0000E+00  0.4000E+01
     -3.773  0.0000E+00  0.4000E+01
     -3.738  0.0000E+00  0.4000E+01
     -3.702  0.0000E+00  0.4000E+01
     -3.667  0.0000E+00  0.4000E+01
     -3.631  0.0000E+00  0.4000E+01
     -3.596  0.0000E+00  0.4000E+01
     -3.561  0.0000E+00  0.4000E+01
     -3.525  0.0000E+00  0.4000E+01
     -3.490  0.0000E+00  0.4000E+01
     -3.454  0.0000E+00  0.4000E+01
     -3.419  0.0000E+00  0.4000E+01
     -3.383  0.0000E+00  0.4000E+01
     -3.348  0.0000E+00  0.4000E+01
     -3.313  0.0000E+00  0.4000E+01
     -3.277  0.0000E+00  0.4000E+01
     -3.242  0.0000E+00  0.4000E+01
     -3.206  0.0000E+00  0.4000E+01
     -3.171  0.0000E+00  0.4000E+01
     -3.135  0.0000E+00  0.4000E+01
     -3.100  0.0000E+00  0.4000E+01
     -3.065  0.0000E+00  0.4000E+01
     -3.029  0.0000E+00  0.4000E+01
     -2.994  0.0000E+00  0.4000E+01
     -2.958  0.0000E+00  0.4000E+01
     -2.923  0.0000E+00  0.4000E+01
     -2.888  0.0000E+00  0.4000E+01
     -2.852  0.0000E+00  0.4000E+01
     -2.817  0.0000E+00  0.4000E+01
     -2.781  0.0000E+00  0.4000E+01
     -2.746  0.0000E+00  0.4000E+01
     -2.710  0.0000E+00  0.4000E+01
     -2.675  0.0000E+00  0.4000E+01
     -2.640  0.0000E+00  0.4000E+01
     -2.604  0.0000E+00  0.4000E+01
     -2.569  0.0000E+00  0.4000E+01
     -2.533  0.0000E+00  0.4000E+01
     -2.498  0.0000E+00  0.4000E+01
     -2.462  0.0000E+00  0.4000E+01
     -2.427  0.6269E-14  0.4000E+01
     -2.392  0.2445E-12  0.4000E+01
     -2.356  0.1172E-10  0.4000E+01
     -2.321  0.4350E-09  0.4000E+01
     -2.285  0.1260E-07  0.4000E+01
     -2.250  0.2849E-06  0.4000E+01
     -2.215  0.5029E-05  0.4000E+01
     -2.179  0.6934E-04  0.4000E+01
     -2.144  0.7467E-03  0.4000E+01
     -2.108  0.6282E-02  0.4000E+01
     -2.073  0.4130E-01  0.4002E+01
     -2.037  0.2122E+00  0.4009E+01
     -2.002  0.8525E+00  0.4039E+01
     -1.967  0.2677E+01  0.4134E+01
     -1.931  0.6574E+01  0.4367E+01
     -1.896  0.1262E+02  0.4814E+01
     -1.860  0.1896E+02  0.5486E+01
     -1.825  0.2227E+02  0.6274E+01
     -1.790  0.2046E+02  0.6999E+01
     -1.754  0.1470E+02  0.7520E+01
     -1.719  0.8261E+01  0.7812E+01
     -1.683  0.3630E+01  0.7941E+01
     -1.648  0.1248E+01  0.7985E+01
     -1.612  0.3352E+00  0.7997E+01
     -1.577  0.7041E-01  0.8000E+01
     -1.542  0.1156E-01  0.8000E+01
     -1.506  0.1483E-02  0.8000E+01
     -1.471  0.1487E-03  0.8000E+01
     -1.435  0.1164E-04  0.8000E+01
     -1.400  0.7119E-06  0.8000E+01
     -1.364  0.3399E-07  0.8000E+01
     -1.329  0.1267E-08  0.8000E+01
     -1.294  0.3687E-10  0.8000E+01
     -1.258  0.8400E-12  0.8000E+01
     -1.223  0.1254E-13  0.8000E+01
     -1.187  0.0000E+00  0.8000E+01
     -1.152  0.0000E+00  0.8000E+01
     -1.117  0.0000E+00  0.8000E+01
     -1.081  0.0000E+00  0.8000E+01
     -1.046  0.0000E+00  0.8000E+01
     -1.010  0.0000E+00  0.8000E+01
     -0.975  0.0000E+00  0.8000E+01
     -0.939  0.0000E+00  0.8000E+01
     -0.904  0.0000E+00  0.8000E+01
     -0.869  0.0000E+00  0.8000E+01
     -0.833  0.0000E+00  0.8000E+01
     -0.798  0.0000E+00  0.8000E+01
     -0.762  0.0000E+00  0.8000E+01
     -0.727  0.0000E+00  0.8000E+01
     -0.691  0.6269E-14  0.8000E+01
     -0.656  0.2727E-12  0.8000E+01
     -0.621  0.1247E-10  0.8000E+01
     -0.585  0.4399E-09  0.8000E+01
     -0.550  0.1212E-07  0.8000E+01
     -0.514  0.2605E-06  0.8000E+01
     -0.479  0.4373E-05  0.8000E+01
     -0.444  0.5734E-04  0.8000E+01
     -0.408  0.5872E-03  0.8000E+01
     -0.373  0.4699E-02  0.8000E+01
     -0.337  0.2938E-01  0.8001E+01
     -0.302  0.1436E+00  0.8006E+01
     -0.266  0.5487E+00  0.8026E+01
     -0.231  0.1639E+01  0.8084E+01
     -0.196  0.3829E+01  0.8219E+01
     -0.160  0.6993E+01  0.8467E+01
     -0.125  0.9991E+01  0.8821E+01
     -0.089  0.1116E+02  0.9216E+01
     -0.054  0.9759E+01  0.9562E+01
     -0.018  0.6686E+01  0.9799E+01
      0.017  0.3654E+01  0.9928E+01
      0.052  0.1859E+01  0.9994E+01
      0.088  0.1678E+01  0.1005E+02
      0.123  0.3131E+01  0.1016E+02
      0.159  0.5961E+01  0.1038E+02
      0.194  0.9169E+01  0.1070E+02
      0.229  0.1107E+02  0.1109E+02
      0.265  0.1046E+02  0.1146E+02
      0.300  0.7724E+01  0.1174E+02
      0.336  0.4463E+01  0.1189E+02
      0.371  0.2017E+01  0.1197E+02
      0.407  0.7125E+00  0.1199E+02
      0.442  0.1968E+00  0.1200E+02
      0.477  0.4251E-01  0.1200E+02
      0.513  0.7177E-02  0.1200E+02
      0.548  0.9468E-03  0.1200E+02
      0.584  0.9759E-04  0.1200E+02
      0.619  0.7858E-05  0.1200E+02
      0.655  0.4942E-06  0.1200E+02
      0.690  0.2427E-07  0.1200E+02
      0.725  0.9303E-09  0.1200E+02
      0.761  0.2783E-10  0.1200E+02
      0.796  0.6520E-12  0.1200E+02
      0.832  0.1254E-13  0.1200E+02
      0.867  0.0000E+00  0.1200E+02
      0.902  0.0000E+00  0.1200E+02
      0.938  0.0000E+00  0.1200E+02
      0.973  0.0000E+00  0.1200E+02
      1.009  0.0000E+00  0.1200E+02
      1.044  0.0000E+00  0.1200E+02
      1.080  0.0000E+00  0.1200E+02
      1.115  0.0000E+00  0.1200E+02
      1.150  0.0000E+00  0.1200E+02
      1.186  0.0000E+00  0.1200E+02
      1.221  0.0000E+00  0.1200E+02
