    3    3    1    1
  0.2666667E+04  0.2000000E-08  0.2000000E-08  0.2000000E-08  0.5000000E-15
   1.0000000000000000E-004
  CAR 
 unknown system                          
      4      1      6

  0.1262379E-14  0.1262379E-14  0.1262379E-14  0.1000000E+01
    1       -8.383863   1.000000
    2       -7.461317   1.000000
    3       -1.589064   0.000000
    4       -1.589064   0.000000
    5       -0.114160   0.000000
    6        0.195717   0.000000
