    3    3    1    1
  0.2666667E+04  0.2000000E-08  0.2000000E-08  0.2000000E-08  0.5000000E-15
   1.0000000000000000E-004
  CAR 
 unknown system                          
      4      1      6

  0.1262379E-14  0.1262379E-14  0.1262379E-14  0.1000000E+01
    1       -8.404939   1.000000
    2       -7.425388   1.000000
    3       -1.837146   0.000000
    4       -1.837146   0.000000
    5       -0.108735   0.000000
    6        0.221253   0.000000
