       N       E                     dE             d eps       ncg     rms          rms(c)
DAV:   1    -0.182041779256E+00   -0.18204E+00   -0.57739E+02    24   0.124E+02
DAV:   2    -0.954512967686E+01   -0.93631E+01   -0.93631E+01    12   0.464E+01
DAV:   3    -0.100107735167E+02   -0.46564E+00   -0.46564E+00    18   0.142E+01
DAV:   4    -0.100115589088E+02   -0.78539E-03   -0.78539E-03    24   0.555E-01
DAV:   5    -0.100115589754E+02   -0.66651E-07   -0.66670E-07    18   0.580E-03    0.591E+00
DAV:   6    -0.902468404912E+01    0.98687E+00   -0.73007E-01    18   0.409E+00    0.316E+00
DAV:   7    -0.857856346390E+01    0.44612E+00   -0.11487E+00    24   0.515E+00    0.545E-01
DAV:   8    -0.858497915847E+01   -0.64157E-02   -0.11946E-02    24   0.598E-01    0.153E-01
DAV:   9    -0.858444356851E+01    0.53559E-03   -0.52546E-03    18   0.333E-01    0.717E-02
DAV:  10    -0.859058515062E+01   -0.61416E-02   -0.26109E-03    18   0.240E-01    0.338E-02
DAV:  11    -0.859216260888E+01   -0.15775E-02   -0.20123E-04    18   0.674E-02    0.243E-02
DAV:  12    -0.859533883286E+01   -0.31762E-02   -0.11485E-03    12   0.137E-01    0.133E-02
DAV:  13    -0.859650384782E+01   -0.11650E-02   -0.13183E-04    18   0.527E-02    0.428E-03
DAV:  14    -0.859712283868E+01   -0.61899E-03   -0.76760E-05    12   0.397E-02    0.433E-03
DAV:  15    -0.859732040595E+01   -0.19757E-03   -0.13293E-05    24   0.167E-02    0.258E-03
DAV:  16    -0.859734511989E+01   -0.24714E-04   -0.71388E-07    18   0.381E-03
   1 F= -.85973451E+01 E0= -.85973451E+01  d E =-.239539E-10
