       N       E                     dE             d eps       ncg     rms          rms(c)
DAV:   1     0.603144612677E+01    0.60314E+01   -0.52058E+02    18   0.206E+02
DAV:   2    -0.810964736003E+01   -0.14141E+02   -0.14141E+02    12   0.569E+01
DAV:   3    -0.100976163918E+02   -0.19880E+01   -0.19880E+01    18   0.262E+01
DAV:   4    -0.101017794680E+02   -0.41631E-02   -0.41631E-02    12   0.128E+00
DAV:   5    -0.101018069717E+02   -0.27504E-04   -0.27504E-04    18   0.136E-01    0.602E+00
DAV:   6    -0.909585395615E+01    0.10060E+01   -0.79469E-01    24   0.446E+00    0.314E+00
DAV:   7    -0.867234062510E+01    0.42351E+00   -0.11253E+00    24   0.546E+00    0.601E-01
DAV:   8    -0.867715788882E+01   -0.48173E-02   -0.17738E-02    18   0.723E-01    0.155E-01
DAV:   9    -0.867606007761E+01    0.10978E-02   -0.73325E-03    18   0.434E-01    0.863E-02
DAV:  10    -0.868062751368E+01   -0.45674E-02   -0.16461E-03    18   0.245E-01    0.364E-02
DAV:  11    -0.868345455683E+01   -0.28270E-02   -0.63920E-04    12   0.138E-01    0.366E-02
DAV:  12    -0.868534630746E+01   -0.18918E-02   -0.67609E-04    18   0.118E-01    0.102E-02
DAV:  13    -0.868708037585E+01   -0.17341E-02   -0.24112E-04    12   0.746E-02    0.622E-03
DAV:  14    -0.868766556502E+01   -0.58519E-03   -0.74321E-05    24   0.406E-02    0.488E-03
DAV:  15    -0.868791020949E+01   -0.24464E-03   -0.16964E-05    24   0.201E-02    0.157E-03
DAV:  16    -0.868796257642E+01   -0.52367E-04   -0.15817E-06    24   0.645E-03
   1 F= -.86879626E+01 E0= -.86879626E+01  d E =-.852939E-11
