 vasp.6.2.1 16May21 (build Dec 20 2021 17:02:34) complex                         
 executed on             LinuxGNU date 2026.01.03  19:23:38
 running on    1 total cores
 distrk:  each k-point on    1 cores,    1 groups
 distr:  one band on NCORE=   1 cores,    1 groups


--------------------------------------------------------------------------------------------------------


 INCAR:
   ENCUT = 200.000000
   SIGMA = 0.100000
   EDIFF = 1.00e-04
   PREC = Normal
   IBRION = -1
   ICHARG = 2
   ISIF = 2
   ISMEAR = 0
   ISTART = 0
   NSW = 0
   LCHARG = .FALSE.
   LWAVE = .FALSE.
   LREAL = Auto

 POTCAR:    PAW H 06May1998                       
 POTCAR:    PAW Be 02Feb1998                      
 POTCAR:    PAW H 06May1998                       
   VRHFIN =H: ultrasoft test                                                                        
   LEXCH  = CA                                                                                      
   EATOM  =    12.1334 eV,    0.8918 Ry                                                             
                                                                                                    
   TITEL  = PAW H 06May1998                                                                         
   LULTRA =        F    use ultrasoft PP ?                                                          
   IUNSCR =        0    unscreen: 0-lin 1-nonlin 2-no                                               
   RPACOR =    0.000    partial core radius                                                         
   POMASS =    1.000; ZVAL   =    1.000    mass and valenz                                          
   RCORE  =    1.100    outmost cutoff radius                                                       
   RWIGS  =    0.700; RWIGS  =    0.370    wigner-seitz radius (au A)                               
   ENMAX  =  250.000; ENMIN  =  200.000 eV                                                          
   RCLOC  =    0.701    cutoff for local pot                                                        
   LCOR   =        T    correct aug charges                                                         
   LPAW   =        T    paw PP                                                                      
   EAUG   =  400.000                                                                                
   RMAX   =    1.123    core radius for proj-oper                                                   
   RAUG   =    1.200    factor for augmentation sphere                                              
   RDEP   =    1.112    radius for radial grids                                                     
   RDEPT  =    0.926    core radius for aug-charge                                                  
                                                                                                    
   Atomic configuration                                                                             
    2 entries                                                                                       
     n  l   j            E        occ.                                                              
     1  0  0.50        -6.3581   1.0000                                                             
     2  1  0.50        -3.4015   0.0000                                                             
   Description                                                                                      
     l       E           TYP  RCUT    TYP  RCUT                                                     
     0     -6.3581322     23  1.100                                                                 
     0      6.8029130     23  1.100                                                                 
     1     -4.0817478     23  1.100                                                                 
  local pseudopotential read in
  atomic valenz-charges read in
  non local Contribution for L=           0  read in
    real space projection operators read in
  non local Contribution for L=           0  read in
    real space projection operators read in
  non local Contribution for L=           1  read in
    real space projection operators read in
    PAW grid and wavefunctions read in

   number of l-projection  operators is LMAX  =           3
   number of lm-projection operators is LMMAX =           5

 POTCAR:    PAW Be 02Feb1998                      
   VRHFIN =Be: s2p0                                                                                 
   LEXCH  = CA                                                                                      
   EATOM  =    27.3295 eV,    2.0087 Ry                                                             
                                                                                                    
   TITEL  = PAW Be 02Feb1998                                                                        
   LULTRA =        F    use ultrasoft PP ?                                                          
   IUNSCR =        1    unscreen: 0-lin 1-nonlin 2-no                                               
   RPACOR =    1.580    partial core radius                                                         
   POMASS =    9.013; ZVAL   =    2.000    mass and valenz                                          
   RCORE  =    1.900    outmost cutoff radius                                                       
   RWIGS  =    1.880; RWIGS  =    0.995    wigner-seitz radius (au A)                               
   ENMAX  =  247.951; ENMIN  =  185.963 eV                                                          
   ICORE  =        2    local potential                                                             
   LCOR   =        T    correct aug charges                                                         
   LPAW   =        T    paw PP                                                                      
   EAUG   =  318.781                                                                                
   DEXC   =    0.000                                                                                
   RMAX   =    1.944    core radius for proj-oper                                                   
   RAUG   =    1.300    factor for augmentation sphere                                              
   RDEP   =    2.003    radius for radial grids                                                     
   RDEPT  =    1.788    core radius for aug-charge                                                  
                                                                                                    
   Atomic configuration                                                                             
    4 entries                                                                                       
     n  l   j            E        occ.                                                              
     1  0  0.50      -104.9107   2.0000                                                             
     2  0  0.50        -5.6075   1.9999                                                             
     2  1  0.50        -2.1069   0.0010                                                             
     3  2  1.50        -1.3606   0.0000                                                             
   Description                                                                                      
     l       E           TYP  RCUT    TYP  RCUT                                                     
     0     -5.6075172     23  1.900                                                                 
     0     27.2116520     23  1.900                                                                 
     1     -2.1069286     23  1.900                                                                 
     1     27.2116520     23  1.900                                                                 
     2     -1.3605826     15  1.500                                                                 
  local pseudopotential read in
  partial core-charges read in
  partial kinetic energy density read in
  atomic valenz-charges read in
  non local Contribution for L=           0  read in
    real space projection operators read in
  non local Contribution for L=           0  read in
    real space projection operators read in
  non local Contribution for L=           1  read in
    real space projection operators read in
  non local Contribution for L=           1  read in
    real space projection operators read in
    PAW grid and wavefunctions read in

   number of l-projection  operators is LMAX  =           4
   number of lm-projection operators is LMMAX =           8

 -----------------------------------------------------------------------------
|                                                                             |
|               ----> ADVICE to this user running VASP <----                  |
|                                                                             |
|     You have a (more or less) 'small supercell' and for smaller cells       |
|     it is recommended to use the reciprocal-space projection scheme!        |
|     The real-space optimization is not efficient for small cells and it     |
|     is also less accurate ...                                               |
|     Therefore, set LREAL=.FALSE. in the INCAR file.                         |
|                                                                             |
 -----------------------------------------------------------------------------

 Optimization of the real space projectors (new method)

 maximal supplied QI-value         = 34.20
 optimisation between [QCUT,QGAM] = [  7.18, 14.37] = [ 14.45, 57.79] Ry 
 Optimized for a Real-space Cutoff    2.13 Angstroem

   l    n(q)    QCUT    max X(q) W(low)/X(q) W(high)/X(q)  e(spline) 
   0      9     7.183    19.314    0.37E-03    0.13E-02    0.14E-05
   0      9     7.183    10.730    0.39E-03    0.14E-02    0.15E-05
   1      9     7.183     3.856    0.37E-03    0.14E-02    0.11E-05
 Optimization of the real space projectors (new method)

 maximal supplied QI-value         = 19.84
 optimisation between [QCUT,QGAM] = [  7.14, 14.48] = [ 14.29, 58.75] Ry 
 Optimized for a Real-space Cutoff    1.95 Angstroem

   l    n(q)    QCUT    max X(q) W(low)/X(q) W(high)/X(q)  e(spline) 
   0      8     7.143    14.765    0.93E-04    0.59E-04    0.27E-06
   0      8     7.143     6.153    0.74E-04    0.79E-04    0.23E-06
   1      8     7.143    17.102    0.32E-03    0.18E-03    0.80E-06
   1      8     7.143     7.519    0.25E-03    0.19E-03    0.71E-06
  PAW H 06May1998                       :
 energy of atom  1       EATOM=  -12.1334
 kinetic energy error for atom=    0.1568 (will be added to EATOM!!)
  PAW Be 02Feb1998                      :
 energy of atom  2       EATOM=  -27.3295
 kinetic energy error for atom=    0.0011 (will be added to EATOM!!)


 POSCAR:  H Be
  positions in cartesian coordinates
  No initial velocities read in
 exchange correlation table for  LEXCH =        2
   RHO(1)=    0.500       N(1)  =     2000
   RHO(2)=  100.500       N(2)  =     4000



--------------------------------------------------------------------------------------------------------


 ion  position               nearest neighbor table
   1  0.500  0.500  0.566-   3 1.33
   2  0.500  0.500  0.434-   3 1.33
   3  0.500  0.500  0.500-   1 1.33   2 1.33

  LATTYP: Found a simple cubic cell.
 ALAT       =    20.0000000000
  
  Lattice vectors:
  
 A1 = (  20.0000000000,   0.0000000000,   0.0000000000)
 A2 = (   0.0000000000,  20.0000000000,   0.0000000000)
 A3 = (   0.0000000000,   0.0000000000,  20.0000000000)


Analysis of symmetry for initial positions (statically):
=====================================================================
 Subroutine PRICEL returns:
 Original cell was already a primitive cell.
 

 Routine SETGRP: Setting up the symmetry group for a 
 simple cubic supercell.


 Subroutine GETGRP returns: Found 16 space group operations
 (whereof 16 operations were pure point group operations)
 out of a pool of 48 trial point group operations.


The static configuration has the point symmetry D_4h.


Analysis of symmetry for dynamics (positions and initial velocities):
=====================================================================
 Subroutine PRICEL returns:
 Original cell was already a primitive cell.
 

 Routine SETGRP: Setting up the symmetry group for a 
 simple cubic supercell.


 Subroutine GETGRP returns: Found 16 space group operations
 (whereof 16 operations were pure point group operations)
 out of a pool of 48 trial point group operations.


The dynamic configuration has the point symmetry D_4h.


 Subroutine INISYM returns: Found 16 space group operations
 (whereof 16 operations are pure point group operations),
 and found     1 'primitive' translations


----------------------------------------------------------------------------------------

                                     Primitive cell                                     

  volume of cell :    8000.0000

  direct lattice vectors                    reciprocal lattice vectors
    20.000000000  0.000000000  0.000000000     0.050000000  0.000000000  0.000000000
     0.000000000 20.000000000  0.000000000     0.000000000  0.050000000  0.000000000
     0.000000000  0.000000000 20.000000000     0.000000000  0.000000000  0.050000000

  length of vectors
    20.000000000 20.000000000 20.000000000     0.050000000  0.050000000  0.050000000

  position of ions in fractional coordinates (direct lattice)
     0.500000000  0.500000000  0.566500000
     0.500000000  0.500000000  0.433500000
     0.500000000  0.500000000  0.500000000

  ion indices of the primitive-cell ions
   primitive index   ion index
                 1           1
                 2           2
                 3           3

----------------------------------------------------------------------------------------



 KPOINTS: KPOINTS created by Atomic Simulation Env

Automatic generation of k-mesh.
 Grid dimensions read from file:
 generate k-points for:    1    1    1

 Generating k-lattice:

  Cartesian coordinates                     Fractional coordinates (reciprocal lattice)
     0.050000000  0.000000000  0.000000000     1.000000000  0.000000000  0.000000000
     0.000000000  0.050000000  0.000000000     0.000000000  1.000000000  0.000000000
     0.000000000  0.000000000  0.050000000     0.000000000  0.000000000  1.000000000

  Length of vectors
     0.050000000  0.050000000  0.050000000

  Shift w.r.t. Gamma in fractional coordinates (k-lattice)
     0.000000000  0.000000000  0.000000000

 
 Subroutine IBZKPT returns following result:
 ===========================================
 
 Found      1 irreducible k-points:
 
 Following reciprocal coordinates:
            Coordinates               Weight
  0.000000  0.000000  0.000000      1.000000
 
 Following cartesian coordinates:
            Coordinates               Weight
  0.000000  0.000000  0.000000      1.000000
 


--------------------------------------------------------------------------------------------------------




 Dimension of arrays:
   k-points           NKPTS =      1   k-points in BZ     NKDIM =      1   number of bands    NBANDS=      6
   number of dos      NEDOS =    301   number of ions     NIONS =      3
   non local maximal  LDIM  =      4   non local SUM 2l+1 LMDIM =      8
   total plane-waves  NPLWV = 343000
   max r-space proj   IRMAX =   1793   max aug-charges    IRDMAX=   1655
   dimension x,y,z NGX =    70 NGY =   70 NGZ =   70
   dimension x,y,z NGXF=   140 NGYF=  140 NGZF=  140
   support grid    NGXF=   140 NGYF=  140 NGZF=  140
   ions per type =               2   1
   NGX,Y,Z   is equivalent  to a cutoff of   5.82,  5.82,  5.82 a.u.
   NGXF,Y,Z  is equivalent  to a cutoff of  11.64, 11.64, 11.64 a.u.

 SYSTEM =  unknown system                          
 POSCAR =   H Be                                   

 Startparameter for this run:
   NWRITE =      2    write-flag & timer
   PREC   = normal    normal or accurate (medium, high low for compatibility)
   ISTART =      0    job   : 0-new  1-cont  2-samecut
   ICHARG =      2    charge: 1-file 2-atom 10-const
   ISPIN  =      1    spin polarized calculation?
   LNONCOLLINEAR =      F non collinear calculations
   LSORBIT =      F    spin-orbit coupling
   INIWAV =      1    electr: 0-lowe 1-rand  2-diag
   LASPH  =      F    aspherical Exc in radial PAW
 Electronic Relaxation 1
   ENCUT  =  200.0 eV  14.70 Ry    3.83 a.u.  23.06 23.06 23.06*2*pi/ulx,y,z
   ENINI  =  200.0     initial cutoff
   ENAUG  =  400.0 eV  augmentation charge cutoff
   NELM   =     60;   NELMIN=  2; NELMDL= -5     # of ELM steps 
   EDIFF  = 0.1E-03   stopping-criterion for ELM
   LREAL  =      T    real-space projection
   NLSPLINE    = F    spline interpolate recip. space projectors
   LCOMPAT=      F    compatible to vasp.4.4
   GGA_COMPAT  = T    GGA compatible to vasp.4.4-vasp.4.6
   LMAXPAW     = -100 max onsite density
   LMAXMIX     =    2 max onsite mixed and CHGCAR
   VOSKOWN=      0    Vosko Wilk Nusair interpolation
   ROPT   =   -0.00050  -0.00050
 Ionic relaxation
   EDIFFG = 0.1E-02   stopping-criterion for IOM
   NSW    =      0    number of steps for IOM
   NBLOCK =      1;   KBLOCK =      1    inner block; outer block 
   IBRION =     -1    ionic relax: 0-MD 1-quasi-New 2-CG
   NFREE  =      0    steps in history (QN), initial steepest desc. (CG)
   ISIF   =      2    stress and relaxation
   IWAVPR =     10    prediction:  0-non 1-charg 2-wave 3-comb
   ISYM   =      2    0-nonsym 1-usesym 2-fastsym
   LCORR  =      T    Harris-Foulkes like correction to forces

   POTIM  = 0.5000    time-step for ionic-motion
   TEIN   =    0.0    initial temperature
   TEBEG  =    0.0;   TEEND  =   0.0 temperature during run
   SMASS  =  -3.00    Nose mass-parameter (am)
   estimated Nose-frequenzy (Omega)   =  0.10E-29 period in steps = 0.13E+47 mass=  -0.914E-26a.u.
   SCALEE = 1.0000    scale energy and forces
   NPACO  =    256;   APACO  = 16.0  distance and # of slots for P.C.
   PSTRESS=    0.0 pullay stress

  Mass of Ions in am
   POMASS =   1.00  9.01
  Ionic Valenz
   ZVAL   =   1.00  2.00
  Atomic Wigner-Seitz radii
   RWIGS  =  -1.00 -1.00
  virtual crystal weights 
   VCA    =   1.00  1.00
   NELECT =       4.0000    total number of electrons
   NUPDOWN=      -1.0000    fix difference up-down

 DOS related values:
   EMIN   =  10.00;   EMAX   =-10.00  energy-range for DOS
   EFERMI =   0.00
   ISMEAR =     0;   SIGMA  =   0.10  broadening in eV -4-tet -1-fermi 0-gaus

 Electronic relaxation 2 (details)
   IALGO  =     38    algorithm
   LDIAG  =      T    sub-space diagonalisation (order eigenvalues)
   LSUBROT=      F    optimize rotation matrix (better conditioning)
   TURBO    =      0    0=normal 1=particle mesh
   IRESTART =      0    0=no restart 2=restart with 2 vectors
   NREBOOT  =      0    no. of reboots
   NMIN     =      0    reboot dimension
   EREF     =   0.00    reference energy to select bands
   IMIX   =      4    mixing-type and parameters
     AMIX     =   0.40;   BMIX     =  1.00
     AMIX_MAG =   1.60;   BMIX_MAG =  1.00
     AMIN     =   0.10
     WC   =   100.;   INIMIX=   1;  MIXPRE=   1;  MAXMIX= -45

 Intra band minimization:
   WEIMIN = 0.0000     energy-eigenvalue tresh-hold
   EBREAK =  0.42E-05  absolut break condition
   DEPER  =   0.30     relativ break condition  

   TIME   =   0.40     timestep for ELM

  volume/ion in A,a.u.               =    2666.67     17995.55
  Fermi-wavevector in a.u.,A,eV,Ry     =   0.129937  0.245545  0.229714  0.016884
  Thomas-Fermi vector in A             =   0.768634

 Write flags
   LWAVE        =      F    write WAVECAR
   LDOWNSAMPLE  =      F    k-point downsampling of WAVECAR
   LCHARG       =      F    write CHGCAR
   LVTOT        =      F    write LOCPOT, total local potential
   LVHAR        =      F    write LOCPOT, Hartree potential only
   LELF         =      F    write electronic localiz. function (ELF)
   LORBIT       =      0    0 simple, 1 ext, 2 COOP (PROOUT), +10 PAW based schemes


 Dipole corrections
   LMONO  =      F    monopole corrections only (constant potential shift)
   LDIPOL =      F    correct potential (dipole corrections)
   IDIPOL =      0    1-x, 2-y, 3-z, 4-all directions 
   EPSILON=  1.0000000 bulk dielectric constant

 Exchange correlation treatment:
   GGA     =    --    GGA type
   LEXCH   =     2    internal setting for exchange type
   VOSKOWN=      0    Vosko Wilk Nusair interpolation
   LHFCALC =     F    Hartree Fock is set to
   LHFONE  =     F    Hartree Fock one center treatment
   AEXX    =    0.0000 exact exchange contribution

 Linear response parameters
   LEPSILON=     F    determine dielectric tensor
   LRPA    =     F    only Hartree local field effects (RPA)
   LNABLA  =     F    use nabla operator in PAW spheres
   LVEL    =     F    velocity operator in full k-point grid
   LINTERFAST=   F  fast interpolation
   KINTER  =     0    interpolate to denser k-point grid
   CSHIFT  =0.1000    complex shift for real part using Kramers Kronig
   OMEGAMAX=  -1.0    maximum frequency
   DEG_THRESHOLD= 0.2000000E-02 threshold for treating states as degnerate
   RTIME   =   -0.100 relaxation time in fs
  (WPLASMAI=    0.000 imaginary part of plasma frequency in eV, 0.658/RTIME)
   DFIELD  = 0.0000000 0.0000000 0.0000000 field for delta impulse in time

 Orbital magnetization related:
   ORBITALMAG=     F  switch on orbital magnetization
   LCHIMAG   =     F  perturbation theory with respect to B field
   DQ        =  0.001000  dq finite difference perturbation B field
   LLRAUG    =     F  two centre corrections for induced B field



--------------------------------------------------------------------------------------------------------


 Static calculation
 charge density and potential will be updated during run
 non-spin polarized calculation
 Variant of blocked Davidson
 Davidson routine will perform the subspace rotation
 perform sub-space diagonalisation
    after iterative eigenvector-optimisation
 modified Broyden-mixing scheme, WC =      100.0
 initial mixing is a Kerker type mixing with AMIX =  0.4000 and BMIX =      1.0000
 Hartree-type preconditioning will be used
 using additional bands            4
 real space projection scheme for non local part
 use partial core corrections
 calculate Harris-corrections to forces   (improved forces if not selfconsistent)
 use of overlap-Matrix (Vanderbilt PP)
 Gauss-broadening in eV      SIGMA  =   0.10


--------------------------------------------------------------------------------------------------------


  energy-cutoff  :      200.00
  volume of cell :     8000.00
      direct lattice vectors                 reciprocal lattice vectors
    20.000000000  0.000000000  0.000000000     0.050000000  0.000000000  0.000000000
     0.000000000 20.000000000  0.000000000     0.000000000  0.050000000  0.000000000
     0.000000000  0.000000000 20.000000000     0.000000000  0.000000000  0.050000000

  length of vectors
    20.000000000 20.000000000 20.000000000     0.050000000  0.050000000  0.050000000



 k-points in units of 2pi/SCALE and weight: KPOINTS created by Atomic Simulation Env
   0.00000000  0.00000000  0.00000000       1.000

 k-points in reciprocal lattice and weights: KPOINTS created by Atomic Simulation Env
   0.00000000  0.00000000  0.00000000       1.000

 position of ions in fractional coordinates (direct lattice) 
   0.50000000  0.50000000  0.56650000
   0.50000000  0.50000000  0.43350000
   0.50000000  0.50000000  0.50000000

 position of ions in cartesian coordinates  (Angst):
  10.00000000 10.00000000 11.33000000
  10.00000000 10.00000000  8.67000000
  10.00000000 10.00000000 10.00000000



--------------------------------------------------------------------------------------------------------


 k-point   1 :   0.0000 0.0000 0.0000  plane waves:   51435

 maximum and minimum number of plane-waves per node :     51435    51435

 maximum number of plane-waves:     51435
 maximum index in each direction: 
   IXMAX=   23   IYMAX=   23   IZMAX=   23
   IXMIN=  -23   IYMIN=  -23   IZMIN=  -23


 serial   3D FFT for wavefunctions
 parallel 3D FFT for charge:
    minimum data exchange during FFTs selected (reduces bandwidth)


 total amount of memory used by VASP MPI-rank0   299009. kBytes
=======================================================================

   base      :      30000. kBytes
   nonlr-proj:        331. kBytes
   fftplans  :      94700. kBytes
   grid      :     169030. kBytes
   one-center:          9. kBytes
   wavefun   :       4939. kBytes

     INWAV:  cpu time    0.0000: real time    0.0000
 Broyden mixing: mesh for mixing (old mesh)
   NGX = 47   NGY = 47   NGZ = 47
  (NGX  =140   NGY  =140   NGZ  =140)
  gives a total of 103823 points

 initial charge density was supplied:
 charge density of overlapping atoms calculated
 number of electron       4.0000000 magnetization 
 keeping initial charge density in first step


--------------------------------------------------------------------------------------------------------


 Maximum index for non-local projection operator         1703
 Maximum index for augmentation-charges         1365 (set IRDMAX)


--------------------------------------------------------------------------------------------------------


 First call to EWALD:  gamma=   0.089
 Maximum number of real-space cells 3x 3x 3
 Maximum number of reciprocal cells 3x 3x 3

    FEWALD:  cpu time    0.0008: real time    0.0008
                                                                                                                                                                                                                                                                                                                                                                                                                                                                                                                                                                                                                                                                                                                                                                                                                                                                                                                                                                                                                                                                                                                                                                                                                                                                                                                                                                                                                                                                                                                                                                                                                                                                                                                                                                                                                                                                                                                                                                                                                                                                                                                                                                                                                                                                                                                                                                                                                                                                                                                                                                                                                                                                                                                                                                                                                                                                                                                                                                                                                                                                                                                                                                                                                                                                                                                                                                                                                                                                                                                                                                                                                                                                                                                                                                                                                                                                                                                                                                                                                                                                                                                                                                                                                                                                                                                                                                                                                                                                                                                                                                                                                                                                                                                                                                                                                                                                                                                                                                                                                                                                                                                                                                                                                                                                                                                                                                                                                                                                                                                                                                                                                                                                                                                                                                                                                                                                                                                                                                                                                                                                                                                                                                                                                                                                                                                                                                                                                                                                                                                                                                                                                                                                                                                                                                                                                                                                                                                                                                                                                                                                                                                                                                                                                                                                                                                                                                                                                                                                                                                                                                                                                                                                                                                                                                                                                                                                                                                                                                                                                                                                                                                                                                                                                                                                                                                                                                                                                                                                                                                                                                                                                                                                                                                                                                                                                                                                                                                                                                                                                                                                                                                                                                                                                                                                                                                                                                                                                                                                                                                                                                                                                                                                                                                                                                                                                                                                                                                                                                                                                                                                                                                                                                                                                                                                                                                                                                                                                                                                                                                                                                                                                                                                                                                                                                                                                                                                                                                                                                                                                                                                                                                                                                                                                                                                                                                                                                                                                                                                                                                                                                                                                                                                                                                                                                                                                                                                                                                                                                                                                                                                                                                                                                                                                                                                                                                                                                                                                                                                                                                                                                                                                                                                                                                                                                                                                                                                                                                                                                                                                                                                                                                                                                                                                                                                                                                                                                                                                                                                                                                                                                                                                                                                                                                                                                                                                                                                                                                                                                                                                                                                                                                                                                                                                                                                                                                                                                                                                                                                                                                                                                                                                                                                                                                                                                                                                                                                                                                                                                                                                                                                                                                                                                                                                                                                                                                                                                                                                                                                                                                                                                                                                                                                                                                                                                                                                                                                                                                                                                                                                                                                                                                                                                                                                                                                                                                                                                                                                                                                                                                                                                                                                                                                                                                                                                                                                                                                                                                                                                                                                                                                                                                                                                                                                                                                                                                                                                                                                                                                                                                                                                                                                                                                                                                                                                                                                                                                                                                                                                                                                                                                                                                                                                                                                                                                                                                                                                                                                                                                                                                                                                                                                                                                                                                                                                                                                                                                                                                                                                                                                                                                                                                                                                                                                                                                                                                                                                                                                                                                                                                                                                                                                                                                                                                                                                                                                                                                                                                                                                                                                                                                                                                                                                                                                                                                                                                                                                                                                                                                                                                                                                                                                                                                                                                                                                                                                                                                                                                                                                                                                                                                                                                                                                                                                                                                                                                                                                                                                                                                                                                                                                                                                                                                                                                                                                                                                                                                                                                                                                                                                                                                                                                                                                                                                                                                                                                                                                                                                                                                                                                                                                                                                                                                                                                                                                                                                                                                                                                                                                                                                                                                                                                                                                                                                                                                                                                                                                                                                                                                                                                                                                                                                                                                                                                                                                                                                                                                                                                                                                                                                                                                                                                                                                                                                                                                                                                                                                                                                                                                                                                                                                                                                                                                                                                                                                                                                                                                                                                                                                                                                                                                                                                                                                                                                                                                                                                                                                                                                                                                                                                                                                                                                                                                                                                                                                                                                                                                                                                                                                                                                                                                                                                                                                                                                                                                                                                                                                                                                                                                                                                                                                                                                                                                                                                                                                                                                                                                                                                                                                                                                                                                                                                                                                                                                                                                                                                                                                                                                                                                                                                                                                                                                                                                                                                                                                                                                                                                                                                                                                                                                                                                                                                                                                                                                                                                                                                                                                                                                                                                                                                                                                                                                                                                                                                                                                                                                                                                                                                                                                                                                                                                                                                                                                                                                                                                                                                                                                                                                                                                                                                                                                                                                                                                                                                                                                                                                                                                                                                                                                                                                                                                                                                                                                                                                                                                                                                                                                                                                                                                                                                                                                                                                                                                                                                                                                                                                                                                                                                                                                                                                                                                                                                                                                                                                                                                                                                                                                                                                                                                                                                                                                                                                                                                                                                                                                                                                                                                                                                                                                                                                                                                                                                                                                                                                                                                                                                                                                                                                                                                                                                                                                                                                                                                                                                                                                                                                                                                                                                                                                                                                                                                                                                                                                                                                                                                                                                                                                                                                                                                                                                                                                                                                                                                                                                                                                                                                                                                                                                                                                                                                                                                                                                                                                                                                                                                                                                                                                                                                                                                                                                                                                                                                                                                                                                                                                                                                                                                                                                                                                                                                                                                                                                                                                                                                                                                                                                                                                                                                                                                                                                                                                                                                                                                                                                                                                                                                                                                                                                                                                                                                                                                                                                                                                                                                                                                                                                                                                                                                                                                                                                                                                                                                                                                                                                                                                                                                                                                                                                                                                                                                                                                                                                                                                                                                                                                                                                                                                                                                                                                                                                                                                                                                                                                                                                                                                                                                                                                                                                                                                                                                                                                                                                                                                                                                                                                                                                                                                                                                                                                                                                                                                                                                                                                                                                                                                                                                                                                                                                                                                                                                                                                                                                                                                                                                                                                                                                                                                                                                                                                                                                                                                                                                                                                                                                                                                                                                                                                                                                                                                                                                                                                                                                                                                                                                                                                                                                                                                                                                                                                                                                                                                                                                                                                                                                                                                                                                                                                                                                                                                                                                                                                                                                                                                                                                                                                                                                                                                                                                                                                                                                                                                                                                                                                                                                                                                                                                                                                                                                                                                                                                                                                                                                                                                                                                                                                                                                                                                                                                                                                                                                                                                                                                                                                                                                                                                                                                                                                                                                                                                                                                                                                                                                                                                                                                                                                                                                                                                                                                                                                                                                                                                                                                                                                                                                                                                                                                                                                                                                                                                                                                                                                                                                                                                                                                                                                                                                                                                                                                                                                                                                                                                                                                                                                                                                                                                                                                                                                                                                                                                                                                                                                                                                                                                                                                                                                                                                                                                                                                                                                                                                                                                                                                                                                                                                                                                                                                                                                                                                                                                                                                                                                                                                                                                                                                                                                                                                                                                                                                                                                                                                                                                                                                                                                                                                                                                                                                                                                                                                                                                                                                                                                                                                                                                                                                                                                                                                                                                                                                                                                                                                                                                                                                                                                                                                                                                                                                                                                                                                                                                                                                                                                                                                                                                                                                                                                                                                                                                                                                                                                                                                                                                                                                                                                                                                                                                                                                                                                                                                                                                                                                                                                                                                                                                                                                                                                                                                                                                                                                                                                                                                                                                                                                                                                                                                                                                                                                                                                                                                                                                                                                                                                                                                                                                                                                                                                                                                                                                                                                                                                                                                                                                                                                                                                                                                                                                                                                                                                                                                                                                                                                                                                                                                                                                                                                                                                                                                                                                                                                                                                                                                                                                                                                                                                                                                                                                                                                                                                                                                                                                                                                                                                                                                                                                                                                                                                                                                                                                                                                                                                                                                                                                                                                                                                                                                                                                                                                                                                                                                                                                                                                                                                                                                                                                                                                                                                                                                                                                                                                                                                                                                                                                                                                                                                                                                                                                                                                                                                                                                                                                                                                                                                                                                                                                                                                                                                                                                                                                                                                                                                                                                                                                                                                                                                                                                                                                                                                                                                                                                                                                                                                                                                                                                                                                                                                                                                                                                                                                                                                                                                                                                                                                                                                                                                                                                                                                                                                                                                                                                                                                                                                                                                                                                                                                                                                                                                                                                                                                                                                                                                                                    
[...]


--------------------------------------------------------------------------------------------------------




--------------------------------------- Iteration      1(  10)  ---------------------------------------


    POTLOK:  cpu time    0.5706: real time    0.5725
    SETDIJ:  cpu time    0.0025: real time    0.0025
     EDDAV:  cpu time    0.6947: real time    0.6973
       DOS:  cpu time    0.0001: real time    0.0001
    CHARGE:  cpu time    0.1297: real time    0.1302
    MIXING:  cpu time    0.0695: real time    0.0697
    --------------------------------------------
      LOOP:  cpu time    1.4672: real time    1.4724

 eigenvalue-minimisations  :    18
 total energy-change (2. order) :-0.6141582E-02  (-0.2610884E-03)
 number of electron       3.9999953 magnetization 
 augmentation part       -0.0204327 magnetization 

 Broyden mixing:
  rms(total) = 0.33840E-02    rms(broyden)= 0.33756E-02
  rms(prec ) = 0.49286E-02
  weight for this iteration     100.00

 eigenvalues of (default mixing * dielectric matrix)
  average eigenvalue GAMMA=   2.0272
  3.4851  2.7081  1.9182  1.1671  0.8575

 Free energy of the ion-electron system (eV)
  ---------------------------------------------------
  alpha Z        PSCENC =         0.00697253
  Ewald energy   TEWEN  =        32.43271813
  -Hartree energ DENC   =       -69.44960387
  -exchange      EXHF   =         0.00000000
  -V(xc)+E(xc)   XCENC  =         8.27313753
  PAW double counting   =        86.96054054      -86.32381550
  entropy T*S    EENTRO =        -0.00000000
  eigenvalues    EBANDS =       -31.77212590
  atomic energy  EATOM  =        51.28159139
  Solvation  Ediel_sol  =         0.00000000
  ---------------------------------------------------
  free energy    TOTEN  =        -8.59058515 eV

  energy without entropy =       -8.59058515  energy(sigma->0) =       -8.59058515


--------------------------------------------------------------------------------------------------------




--------------------------------------- Iteration      1(  11)  ---------------------------------------


    POTLOK:  cpu time    0.5587: real time    0.5601
    SETDIJ:  cpu time    0.0024: real time    0.0024
     EDDAV:  cpu time    0.6541: real time    0.6559
       DOS:  cpu time    0.0001: real time    0.0001
    CHARGE:  cpu time    0.1273: real time    0.1277
    MIXING:  cpu time    0.0711: real time    0.0714
    --------------------------------------------
      LOOP:  cpu time    1.4137: real time    1.4176

 eigenvalue-minimisations  :    18
 total energy-change (2. order) :-0.1577458E-02  (-0.2012344E-04)
 number of electron       3.9999953 magnetization 
 augmentation part       -0.0203229 magnetization 

 Broyden mixing:
  rms(total) = 0.24281E-02    rms(broyden)= 0.24281E-02
  rms(prec ) = 0.37892E-02
  weight for this iteration     100.00

 eigenvalues of (default mixing * dielectric matrix)
  average eigenvalue GAMMA=   2.3893
  4.8156  2.8993  2.7106  1.9899  1.0463  0.8740

 Free energy of the ion-electron system (eV)
  ---------------------------------------------------
  alpha Z        PSCENC =         0.00697253
  Ewald energy   TEWEN  =        32.43271813
  -Hartree energ DENC   =       -69.43958142
  -exchange      EXHF   =         0.00000000
  -V(xc)+E(xc)   XCENC  =         8.26685328
  PAW double counting   =        87.13934052      -86.50321837
  entropy T*S    EENTRO =        -0.00000000
  eigenvalues    EBANDS =       -31.77683867
  atomic energy  EATOM  =        51.28159139
  Solvation  Ediel_sol  =         0.00000000
  ---------------------------------------------------
  free energy    TOTEN  =        -8.59216261 eV

  energy without entropy =       -8.59216261  energy(sigma->0) =       -8.59216261


--------------------------------------------------------------------------------------------------------




--------------------------------------- Iteration      1(  12)  ---------------------------------------


    POTLOK:  cpu time    0.5582: real time    0.5596
    SETDIJ:  cpu time    0.0025: real time    0.0025
     EDDAV:  cpu time    0.4740: real time    0.4753
       DOS:  cpu time    0.0001: real time    0.0001
    CHARGE:  cpu time    0.1267: real time    0.1271
    MIXING:  cpu time    0.0737: real time    0.0740
    --------------------------------------------
      LOOP:  cpu time    1.2352: real time    1.2385

 eigenvalue-minimisations  :    12
 total energy-change (2. order) :-0.3176224E-02  (-0.1148525E-03)
 number of electron       3.9999953 magnetization 
 augmentation part       -0.0202810 magnetization 

 Broyden mixing:
  rms(total) = 0.13323E-02    rms(broyden)= 0.13315E-02
  rms(prec ) = 0.18535E-02
  weight for this iteration     100.00

 eigenvalues of (default mixing * dielectric matrix)
  average eigenvalue GAMMA=   2.4818
  5.6597  3.4924  2.4913  0.9775  0.9775  1.9321  1.8421

 Free energy of the ion-electron system (eV)
  ---------------------------------------------------
  alpha Z        PSCENC =         0.00697253
  Ewald energy   TEWEN  =        32.43271813
  -Hartree energ DENC   =       -69.56355914
  -exchange      EXHF   =         0.00000000
  -V(xc)+E(xc)   XCENC  =         8.27319442
  PAW double counting   =        87.62978751      -86.99472621
  entropy T*S    EENTRO =        -0.00000000
  eigenvalues    EBANDS =       -31.66131746
  atomic energy  EATOM  =        51.28159139
  Solvation  Ediel_sol  =         0.00000000
  ---------------------------------------------------
  free energy    TOTEN  =        -8.59533883 eV

  energy without entropy =       -8.59533883  energy(sigma->0) =       -8.59533883


--------------------------------------------------------------------------------------------------------




--------------------------------------- Iteration      1(  13)  ---------------------------------------


    POTLOK:  cpu time    0.5567: real time    0.5581
    SETDIJ:  cpu time    0.0024: real time    0.0025
     EDDAV:  cpu time    0.6457: real time    0.6473
       DOS:  cpu time    0.0001: real time    0.0001
    CHARGE:  cpu time    0.1263: real time    0.1267
    MIXING:  cpu time    0.0759: real time    0.0761
    --------------------------------------------
      LOOP:  cpu time    1.4071: real time    1.4107

 eigenvalue-minimisations  :    18
 total energy-change (2. order) :-0.1165015E-02  (-0.1318305E-04)
 number of electron       3.9999953 magnetization 
 augmentation part       -0.0203169 magnetization 

 Broyden mixing:
  rms(total) = 0.42801E-03    rms(broyden)= 0.42761E-03
  rms(prec ) = 0.73186E-03
  weight for this iteration     100.00

 eigenvalues of (default mixing * dielectric matrix)
  average eigenvalue GAMMA=   2.6731
  6.5821  4.3647  2.9242  2.4025  1.9533  0.9759  0.9759  1.2058

 Free energy of the ion-electron system (eV)
  ---------------------------------------------------
  alpha Z        PSCENC =         0.00697253
  Ewald energy   TEWEN  =        32.43271813
  -Hartree energ DENC   =       -69.55529881
  -exchange      EXHF   =         0.00000000
  -V(xc)+E(xc)   XCENC  =         8.27014584
  PAW double counting   =        87.36420991      -86.72846737
  entropy T*S    EENTRO =        -0.00000000
  eigenvalues    EBANDS =       -31.66837547
  atomic energy  EATOM  =        51.28159139
  Solvation  Ediel_sol  =         0.00000000
  ---------------------------------------------------
  free energy    TOTEN  =        -8.59650385 eV

  energy without entropy =       -8.59650385  energy(sigma->0) =       -8.59650385


--------------------------------------------------------------------------------------------------------




--------------------------------------- Iteration      1(  14)  ---------------------------------------


    POTLOK:  cpu time    0.5543: real time    0.5555
    SETDIJ:  cpu time    0.0025: real time    0.0025
     EDDAV:  cpu time    0.4676: real time    0.4686
       DOS:  cpu time    0.0001: real time    0.0001
    CHARGE:  cpu time    0.1250: real time    0.1254
    MIXING:  cpu time    0.0787: real time    0.0789
    --------------------------------------------
      LOOP:  cpu time    1.2281: real time    1.2310

 eigenvalue-minimisations  :    12
 total energy-change (2. order) :-0.6189909E-03  (-0.7675970E-05)
 number of electron       3.9999953 magnetization 
 augmentation part       -0.0203238 magnetization 

 Broyden mixing:
  rms(total) = 0.43336E-03    rms(broyden)= 0.43330E-03
  rms(prec ) = 0.55200E-03
  weight for this iteration     100.00

 eigenvalues of (default mixing * dielectric matrix)
  average eigenvalue GAMMA=   2.8506
  7.5244  4.6558  3.3558  2.8235  2.3504  1.9784  1.0062  1.0062  0.9547

 Free energy of the ion-electron system (eV)
  ---------------------------------------------------
  alpha Z        PSCENC =         0.00697253
  Ewald energy   TEWEN  =        32.43271813
  -Hartree energ DENC   =       -69.55086539
  -exchange      EXHF   =         0.00000000
  -V(xc)+E(xc)   XCENC  =         8.26844579
  PAW double counting   =        87.26461995      -86.62853363
  entropy T*S    EENTRO =        -0.00000000
  eigenvalues    EBANDS =       -31.67207161
  atomic energy  EATOM  =        51.28159139
  Solvation  Ediel_sol  =         0.00000000
  ---------------------------------------------------
  free energy    TOTEN  =        -8.59712284 eV

  energy without entropy =       -8.59712284  energy(sigma->0) =       -8.59712284


--------------------------------------------------------------------------------------------------------




--------------------------------------- Iteration      1(  15)  ---------------------------------------


    POTLOK:  cpu time    0.5518: real time    0.5532
    SETDIJ:  cpu time    0.0026: real time    0.0026
     EDDAV:  cpu time    0.8283: real time    0.8305
       DOS:  cpu time    0.0001: real time    0.0001
    CHARGE:  cpu time    0.1259: real time    0.1263
    MIXING:  cpu time    0.0827: real time    0.0830
    --------------------------------------------
      LOOP:  cpu time    1.5915: real time    1.5957

 eigenvalue-minimisations  :    24
 total energy-change (2. order) :-0.1975673E-03  (-0.1329345E-05)
 number of electron       3.9999953 magnetization 
 augmentation part       -0.0203150 magnetization 

 Broyden mixing:
  rms(total) = 0.25779E-03    rms(broyden)= 0.25766E-03
  rms(prec ) = 0.30175E-03
  weight for this iteration     100.00

 eigenvalues of (default mixing * dielectric matrix)
  average eigenvalue GAMMA=   2.8736
  7.9158  4.9836  3.8862  2.7137  2.2045  2.0521  2.0521  0.9939  0.9939  0.9404

 Free energy of the ion-electron system (eV)
  ---------------------------------------------------
  alpha Z        PSCENC =         0.00697253
  Ewald energy   TEWEN  =        32.43271813
  -Hartree energ DENC   =       -69.56577396
  -exchange      EXHF   =         0.00000000
  -V(xc)+E(xc)   XCENC  =         8.26943056
  PAW double counting   =        87.37771974      -86.74207972
  entropy T*S    EENTRO =        -0.00000000
  eigenvalues    EBANDS =       -31.65789909
  atomic energy  EATOM  =        51.28159139
  Solvation  Ediel_sol  =         0.00000000
  ---------------------------------------------------
  free energy    TOTEN  =        -8.59732041 eV

  energy without entropy =       -8.59732041  energy(sigma->0) =       -8.59732041


--------------------------------------------------------------------------------------------------------




--------------------------------------- Iteration      1(  16)  ---------------------------------------


    POTLOK:  cpu time    0.5583: real time    0.5596
    SETDIJ:  cpu time    0.0025: real time    0.0025
     EDDAV:  cpu time    0.6592: real time    0.6611
       DOS:  cpu time    0.0001: real time    0.0001
    --------------------------------------------
      LOOP:  cpu time    1.2201: real time    1.2233

 eigenvalue-minimisations  :    18
 total energy-change (2. order) :-0.2471393E-04  (-0.7138753E-07)
 number of electron       3.9999953 magnetization 
 augmentation part       -0.0203150 magnetization 

 Free energy of the ion-electron system (eV)
  ---------------------------------------------------
  alpha Z        PSCENC =         0.00697253
  Ewald energy   TEWEN  =        32.43271813
  -Hartree energ DENC   =       -69.56274197
  -exchange      EXHF   =         0.00000000
  -V(xc)+E(xc)   XCENC  =         8.26899941
  PAW double counting   =        87.34256553      -86.70679774
  entropy T*S    EENTRO =        -0.00000000
  eigenvalues    EBANDS =       -31.66065240
  atomic energy  EATOM  =        51.28159139
  Solvation  Ediel_sol  =         0.00000000
  ---------------------------------------------------
  free energy    TOTEN  =        -8.59734512 eV

  energy without entropy =       -8.59734512  energy(sigma->0) =       -8.59734512


--------------------------------------------------------------------------------------------------------




 average (electrostatic) potential at core
  the test charge radii are     0.5201  0.9943
  (the norm of the test charge is              0.9999)
       1 -39.4118       2 -39.4118       3 -41.7451



 E-fermi :  -6.9608     XC(G=0):  -0.1601     alpha+bet : -0.0233

 Fermi energy:        -6.9608454159

 k-point     1 :       0.0000    0.0000    0.0000
  band No.  band energies     occupation 
      1      -8.4049      2.00000
      2      -7.4254      2.00000
      3      -1.8371      0.00000
      4      -1.8371      0.00000
      5      -0.1087      0.00000
      6       0.2213      0.00000


--------------------------------------------------------------------------------------------------------


 soft charge-density along one line, spin component           1
         0         1         2         3         4         5         6         7         8         9
 total charge-density along one line

 pseudopotential strength for first ion, spin component:           1
 -2.152  -3.775   0.000   0.001   0.000
 -3.775  -6.542   0.000   0.003   0.000
  0.000   0.000  -0.339   0.000   0.000
  0.001   0.003   0.000  -0.337   0.000
  0.000   0.000   0.000   0.000  -0.339
 total augmentation occupancy for first ion, spin component:           1
  4.843  -1.233   0.000  -0.220  -0.000
 -1.233   0.314   0.000   0.056   0.000
  0.000   0.000   0.000   0.000   0.000
 -0.220   0.056   0.000   0.010   0.000
 -0.000   0.000   0.000   0.000   0.000


------------------------ aborting loop because EDIFF is reached ----------------------------------------


    CHARGE:  cpu time    0.1278: real time    0.1282
    FORLOC:  cpu time    0.1552: real time    0.1555
    FORNL :  cpu time    0.1634: real time    0.1638
    STRESS:  cpu time    0.6743: real time    0.6758
    FORCOR:  cpu time    0.5807: real time    0.5819
    FORHAR:  cpu time    0.6031: real time    0.6045
    MIXING:  cpu time    0.0874: real time    0.0877
    OFIELD:  cpu time    0.0000: real time    0.0000

  FORCE on cell =-STRESS in cart. coord.  units (eV):
  Direction    XX          YY          ZZ          XY          YZ          ZX
  --------------------------------------------------------------------------------------
  Alpha Z     0.00697     0.00697     0.00697
  Ewald      -5.47399    -5.47399    43.38069     0.00000     0.00000     0.00000
  Hartree    17.70324    17.70324    34.15675    -0.00000    -0.00000    -0.00000
  E(xc)      -9.61027    -9.61027    -9.90906    -0.00000     0.00000    -0.00000
  Local     -30.89797   -30.89797   -98.15287    -0.00000     0.00000     0.00000
  n-local     0.11506     0.11506     2.40098     0.00000    -0.00000    -0.00000
  augment    -0.19636    -0.19636    -0.05418     0.00000    -0.00000    -0.00000
  Kinetic    27.46439    27.46439    28.04419    -0.00000     0.00000    -0.00000
  Fock        0.00000     0.00000     0.00000     0.00000     0.00000     0.00000
  -------------------------------------------------------------------------------------
  Total      -0.88892    -0.88892    -0.12654     0.00000    -0.00000    -0.00000
  in kB      -0.17803    -0.17803    -0.02534     0.00000    -0.00000    -0.00000
  external pressure =       -0.13 kB  Pullay stress =        0.00 kB


 VOLUME and BASIS-vectors are now :
 -----------------------------------------------------------------------------
  energy-cutoff  :      200.00
  volume of cell :     8000.00
      direct lattice vectors                 reciprocal lattice vectors
    20.000000000  0.000000000  0.000000000     0.050000000  0.000000000  0.000000000
     0.000000000 20.000000000  0.000000000     0.000000000  0.050000000  0.000000000
     0.000000000  0.000000000 20.000000000     0.000000000  0.000000000  0.050000000

  length of vectors
    20.000000000 20.000000000 20.000000000     0.050000000  0.050000000  0.050000000


 FORCES acting on ions
    electron-ion (+dipol)            ewald-force                    non-local-force                 convergence-correction
 -----------------------------------------------------------------------------------------------
   0.284E-13 0.537E-13 -.156E+02   -.130E-18 -.932E-19 0.183E+02   0.000E+00 -.252E-27 -.233E+01   0.146E-15 0.389E-15 -.153E-03
   0.283E-13 0.490E-13 0.156E+02   0.469E-18 0.398E-18 -.183E+02   0.000E+00 -.606E-27 0.233E+01   0.876E-15 0.134E-15 0.153E-03
   0.209E-13 0.154E-13 0.619E-13   -.457E-18 -.809E-18 0.630E-18   -.646E-25 0.646E-25 0.485E-26   0.902E-15 0.530E-15 -.680E-15
 -----------------------------------------------------------------------------------------------
   0.776E-13 0.118E-12 0.190E-12   -.118E-18 -.505E-18 0.630E-18   -.646E-25 0.638E-25 0.444E-15   0.192E-14 0.105E-14 -.130E-14


 POSITION                                       TOTAL-FORCE (eV/Angst)
 -----------------------------------------------------------------------------------
     10.00000     10.00000     11.33000         0.000000      0.000000      0.380813
     10.00000     10.00000      8.67000         0.000000     -0.000000     -0.380813
     10.00000     10.00000     10.00000        -0.000000      0.000000     -0.000000
 -----------------------------------------------------------------------------------
    total drift:                                0.000000      0.000000      0.000000


--------------------------------------------------------------------------------------------------------



  FREE ENERGIE OF THE ION-ELECTRON SYSTEM (eV)
  ---------------------------------------------------
  free  energy   TOTEN  =        -8.59734512 eV

  energy  without entropy=       -8.59734512  energy(sigma->0) =       -8.59734512



--------------------------------------------------------------------------------------------------------


    POTLOK:  cpu time    0.5621: real time    0.5635


--------------------------------------------------------------------------------------------------------


     LOOP+:  cpu time   21.8065: real time   23.2014
    4ORBIT:  cpu time    0.0000: real time    0.0000

 total amount of memory used by VASP MPI-rank0   299009. kBytes
=======================================================================

   base      :      30000. kBytes
   nonlr-proj:        331. kBytes
   fftplans  :      94700. kBytes
   grid      :     169030. kBytes
   one-center:          9. kBytes
   wavefun   :       4939. kBytes

  
  
 General timing and accounting informations for this job:
 ========================================================
  
                  Total CPU time used (sec):       24.550
                            User time (sec):       24.182
                          System time (sec):        0.369
                         Elapsed time (sec):       29.324
  
                   Maximum memory used (kb):      593580.
                   Average memory used (kb):          N/A
  
                          Minor page faults:        69578
                          Major page faults:            0
                 Voluntary context switches:         1585
