 vasp.6.2.1 16May21 (build Dec 20 2021 17:02:34) complex                         
 executed on             LinuxGNU date 2026.01.10  20:06:26
 running on    1 total cores
 distrk:  each k-point on    1 cores,    1 groups
 distr:  one band on NCORE=   1 cores,    1 groups


--------------------------------------------------------------------------------------------------------


 INCAR:
   ENCUT = 200.000000
   SIGMA = 0.100000
   EDIFF = 1.00e-04
   PREC = Normal
   IBRION = -1
   ICHARG = 2
   ISIF = 2
   ISMEAR = 0
   ISTART = 0
   NSW = 0
   LCHARG = .FALSE.
   LWAVE = .FALSE.
   LREAL = Auto

 POTCAR:    PAW H 06May1998                       
 POTCAR:    PAW Be 02Feb1998                      
 POTCAR:    PAW H 06May1998                       
   VRHFIN =H: ultrasoft test                                                                        
   LEXCH  = CA                                                                                      
   EATOM  =    12.1334 eV,    0.8918 Ry                                                             
                                                                                                    
   TITEL  = PAW H 06May1998                                                                         
   LULTRA =        F    use ultrasoft PP ?                                                          
   IUNSCR =        0    unscreen: 0-lin 1-nonlin 2-no                                               
   RPACOR =    0.000    partial core radius                                                         
   POMASS =    1.000; ZVAL   =    1.000    mass and valenz                                          
   RCORE  =    1.100    outmost cutoff radius                                                       
   RWIGS  =    0.700; RWIGS  =    0.370    wigner-seitz radius (au A)                               
   ENMAX  =  250.000; ENMIN  =  200.000 eV                                                          
   RCLOC  =    0.701    cutoff for local pot                                                        
   LCOR   =        T    correct aug charges                                                         
   LPAW   =        T    paw PP                                                                      
   EAUG   =  400.000                                                                                
   RMAX   =    1.123    core radius for proj-oper                                                   
   RAUG   =    1.200    factor for augmentation sphere                                              
   RDEP   =    1.112    radius for radial grids                                                     
   RDEPT  =    0.926    core radius for aug-charge                                                  
                                                                                                    
   Atomic configuration                                                                             
    2 entries                                                                                       
     n  l   j            E        occ.                                                              
     1  0  0.50        -6.3581   1.0000                                                             
     2  1  0.50        -3.4015   0.0000                                                             
   Description                                                                                      
     l       E           TYP  RCUT    TYP  RCUT                                                     
     0     -6.3581322     23  1.100                                                                 
     0      6.8029130     23  1.100                                                                 
     1     -4.0817478     23  1.100                                                                 
  local pseudopotential read in
  atomic valenz-charges read in
  non local Contribution for L=           0  read in
    real space projection operators read in
  non local Contribution for L=           0  read in
    real space projection operators read in
  non local Contribution for L=           1  read in
    real space projection operators read in
    PAW grid and wavefunctions read in

   number of l-projection  operators is LMAX  =           3
   number of lm-projection operators is LMMAX =           5

 POTCAR:    PAW Be 02Feb1998                      
   VRHFIN =Be: s2p0                                                                                 
   LEXCH  = CA                                                                                      
   EATOM  =    27.3295 eV,    2.0087 Ry                                                             
                                                                                                    
   TITEL  = PAW Be 02Feb1998                                                                        
   LULTRA =        F    use ultrasoft PP ?                                                          
   IUNSCR =        1    unscreen: 0-lin 1-nonlin 2-no                                               
   RPACOR =    1.580    partial core radius                                                         
   POMASS =    9.013; ZVAL   =    2.000    mass and valenz                                          
   RCORE  =    1.900    outmost cutoff radius                                                       
   RWIGS  =    1.880; RWIGS  =    0.995    wigner-seitz radius (au A)                               
   ENMAX  =  247.951; ENMIN  =  185.963 eV                                                          
   ICORE  =        2    local potential                                                             
   LCOR   =        T    correct aug charges                                                         
   LPAW   =        T    paw PP                                                                      
   EAUG   =  318.781                                                                                
   DEXC   =    0.000                                                                                
   RMAX   =    1.944    core radius for proj-oper                                                   
   RAUG   =    1.300    factor for augmentation sphere                                              
   RDEP   =    2.003    radius for radial grids                                                     
   RDEPT  =    1.788    core radius for aug-charge                                                  
                                                                                                    
   Atomic configuration                                                                             
    4 entries                                                                                       
     n  l   j            E        occ.                                                              
     1  0  0.50      -104.9107   2.0000                                                             
     2  0  0.50        -5.6075   1.9999                                                             
     2  1  0.50        -2.1069   0.0010                                                             
     3  2  1.50        -1.3606   0.0000                                                             
   Description                                                                                      
     l       E           TYP  RCUT    TYP  RCUT                                                     
     0     -5.6075172     23  1.900                                                                 
     0     27.2116520     23  1.900                                                                 
     1     -2.1069286     23  1.900                                                                 
     1     27.2116520     23  1.900                                                                 
     2     -1.3605826     15  1.500                                                                 
  local pseudopotential read in
  partial core-charges read in
  partial kinetic energy density read in
  atomic valenz-charges read in
  non local Contribution for L=           0  read in
    real space projection operators read in
  non local Contribution for L=           0  read in
    real space projection operators read in
  non local Contribution for L=           1  read in
    real space projection operators read in
  non local Contribution for L=           1  read in
    real space projection operators read in
    PAW grid and wavefunctions read in

   number of l-projection  operators is LMAX  =           4
   number of lm-projection operators is LMMAX =           8

 -----------------------------------------------------------------------------
|                                                                             |
|               ----> ADVICE to this user running VASP <----                  |
|                                                                             |
|     You have a (more or less) 'small supercell' and for smaller cells       |
|     it is recommended to use the reciprocal-space projection scheme!        |
|     The real-space optimization is not efficient for small cells and it     |
|     is also less accurate ...                                               |
|     Therefore, set LREAL=.FALSE. in the INCAR file.                         |
|                                                                             |
 -----------------------------------------------------------------------------

 Optimization of the real space projectors (new method)

 maximal supplied QI-value         = 34.20
 optimisation between [QCUT,QGAM] = [  7.18, 14.37] = [ 14.45, 57.79] Ry 
 Optimized for a Real-space Cutoff    2.13 Angstroem

   l    n(q)    QCUT    max X(q) W(low)/X(q) W(high)/X(q)  e(spline) 
   0      9     7.183    19.314    0.37E-03    0.13E-02    0.14E-05
   0      9     7.183    10.730    0.39E-03    0.14E-02    0.15E-05
   1      9     7.183     3.856    0.37E-03    0.14E-02    0.11E-05
 Optimization of the real space projectors (new method)

 maximal supplied QI-value         = 19.84
 optimisation between [QCUT,QGAM] = [  7.14, 14.48] = [ 14.29, 58.75] Ry 
 Optimized for a Real-space Cutoff    1.95 Angstroem

   l    n(q)    QCUT    max X(q) W(low)/X(q) W(high)/X(q)  e(spline) 
   0      8     7.143    14.765    0.93E-04    0.59E-04    0.27E-06
   0      8     7.143     6.153    0.74E-04    0.79E-04    0.23E-06
   1      8     7.143    17.102    0.32E-03    0.18E-03    0.80E-06
   1      8     7.143     7.519    0.25E-03    0.19E-03    0.71E-06
  PAW H 06May1998                       :
 energy of atom  1       EATOM=  -12.1334
 kinetic energy error for atom=    0.1568 (will be added to EATOM!!)
  PAW Be 02Feb1998                      :
 energy of atom  2       EATOM=  -27.3295
 kinetic energy error for atom=    0.0011 (will be added to EATOM!!)


 POSCAR:  H Be
  positions in cartesian coordinates
  No initial velocities read in
 exchange correlation table for  LEXCH =        2
   RHO(1)=    0.500       N(1)  =     2000
   RHO(2)=  100.500       N(2)  =     4000



--------------------------------------------------------------------------------------------------------


 ion  position               nearest neighbor table
   1  0.500  0.500  0.566-   3 1.33
   2  0.500  0.500  0.434-   3 1.33
   3  0.500  0.500  0.500-   1 1.33   2 1.33

  LATTYP: Found a simple cubic cell.
 ALAT       =    20.0000000000
  
  Lattice vectors:
  
 A1 = (  20.0000000000,   0.0000000000,   0.0000000000)
 A2 = (   0.0000000000,  20.0000000000,   0.0000000000)
 A3 = (   0.0000000000,   0.0000000000,  20.0000000000)


Analysis of symmetry for initial positions (statically):
=====================================================================
 Subroutine PRICEL returns:
 Original cell was already a primitive cell.
 

 Routine SETGRP: Setting up the symmetry group for a 
 simple cubic supercell.


 Subroutine GETGRP returns: Found 16 space group operations
 (whereof 16 operations were pure point group operations)
 out of a pool of 48 trial point group operations.


The static configuration has the point symmetry D_4h.


Analysis of symmetry for dynamics (positions and initial velocities):
=====================================================================
 Subroutine PRICEL returns:
 Original cell was already a primitive cell.
 

 Routine SETGRP: Setting up the symmetry group for a 
 simple cubic supercell.


 Subroutine GETGRP returns: Found 16 space group operations
 (whereof 16 operations were pure point group operations)
 out of a pool of 48 trial point group operations.


The dynamic configuration has the point symmetry D_4h.


 Subroutine INISYM returns: Found 16 space group operations
 (whereof 16 operations are pure point group operations),
 and found     1 'primitive' translations


----------------------------------------------------------------------------------------

                                     Primitive cell                                     

  volume of cell :    8000.0000

  direct lattice vectors                    reciprocal lattice vectors
    20.000000000  0.000000000  0.000000000     0.050000000  0.000000000  0.000000000
     0.000000000 20.000000000  0.000000000     0.000000000  0.050000000  0.000000000
     0.000000000  0.000000000 20.000000000     0.000000000  0.000000000  0.050000000

  length of vectors
    20.000000000 20.000000000 20.000000000     0.050000000  0.050000000  0.050000000

  position of ions in fractional coordinates (direct lattice)
     0.500000000  0.500000000  0.566500000
     0.500000000  0.500000000  0.433500000
     0.500000000  0.500000000  0.500000000

  ion indices of the primitive-cell ions
   primitive index   ion index
                 1           1
                 2           2
                 3           3

----------------------------------------------------------------------------------------



 KPOINTS: KPOINTS created by Atomic Simulation Env

Automatic generation of k-mesh.
 Grid dimensions read from file:
 generate k-points for:    1    1    1

 Generating k-lattice:

  Cartesian coordinates                     Fractional coordinates (reciprocal lattice)
     0.050000000  0.000000000  0.000000000     1.000000000  0.000000000  0.000000000
     0.000000000  0.050000000  0.000000000     0.000000000  1.000000000  0.000000000
     0.000000000  0.000000000  0.050000000     0.000000000  0.000000000  1.000000000

  Length of vectors
     0.050000000  0.050000000  0.050000000

  Shift w.r.t. Gamma in fractional coordinates (k-lattice)
     0.000000000  0.000000000  0.000000000

 
 Subroutine IBZKPT returns following result:
 ===========================================
 
 Found      1 irreducible k-points:
 
 Following reciprocal coordinates:
            Coordinates               Weight
  0.000000  0.000000  0.000000      1.000000
 
 Following cartesian coordinates:
            Coordinates               Weight
  0.000000  0.000000  0.000000      1.000000
 


--------------------------------------------------------------------------------------------------------




 Dimension of arrays:
   k-points           NKPTS =      1   k-points in BZ     NKDIM =      1   number of bands    NBANDS=      6
   number of dos      NEDOS =    301   number of ions     NIONS =      3
   non local maximal  LDIM  =      4   non local SUM 2l+1 LMDIM =      8
   total plane-waves  NPLWV = 343000
   max r-space proj   IRMAX =   1793   max aug-charges    IRDMAX=   1655
   dimension x,y,z NGX =    70 NGY =   70 NGZ =   70
   dimension x,y,z NGXF=   140 NGYF=  140 NGZF=  140
   support grid    NGXF=   140 NGYF=  140 NGZF=  140
   ions per type =               2   1
   NGX,Y,Z   is equivalent  to a cutoff of   5.82,  5.82,  5.82 a.u.
   NGXF,Y,Z  is equivalent  to a cutoff of  11.64, 11.64, 11.64 a.u.

 SYSTEM =  unknown system                          
 POSCAR =   H Be                                   

 Startparameter for this run:
   NWRITE =      2    write-flag & timer
   PREC   = normal    normal or accurate (medium, high low for compatibility)
   ISTART =      0    job   : 0-new  1-cont  2-samecut
   ICHARG =      2    charge: 1-file 2-atom 10-const
   ISPIN  =      1    spin polarized calculation?
   LNONCOLLINEAR =      F non collinear calculations
   LSORBIT =      F    spin-orbit coupling
   INIWAV =      1    electr: 0-lowe 1-rand  2-diag
   LASPH  =      F    aspherical Exc in radial PAW
 Electronic Relaxation 1
   ENCUT  =  200.0 eV  14.70 Ry    3.83 a.u.  23.06 23.06 23.06*2*pi/ulx,y,z
   ENINI  =  200.0     initial cutoff
   ENAUG  =  400.0 eV  augmentation charge cutoff
   NELM   =     60;   NELMIN=  2; NELMDL= -5     # of ELM steps 
   EDIFF  = 0.1E-03   stopping-criterion for ELM
   LREAL  =      T    real-space projection
   NLSPLINE    = F    spline interpolate recip. space projectors
   LCOMPAT=      F    compatible to vasp.4.4
   GGA_COMPAT  = T    GGA compatible to vasp.4.4-vasp.4.6
   LMAXPAW     = -100 max onsite density
   LMAXMIX     =    2 max onsite mixed and CHGCAR
   VOSKOWN=      0    Vosko Wilk Nusair interpolation
   ROPT   =   -0.00050  -0.00050
 Ionic relaxation
   EDIFFG = 0.1E-02   stopping-criterion for IOM
   NSW    =      0    number of steps for IOM
   NBLOCK =      1;   KBLOCK =      1    inner block; outer block 
   IBRION =     -1    ionic relax: 0-MD 1-quasi-New 2-CG
   NFREE  =      0    steps in history (QN), initial steepest desc. (CG)
   ISIF   =      2    stress and relaxation
   IWAVPR =     10    prediction:  0-non 1-charg 2-wave 3-comb
   ISYM   =      2    0-nonsym 1-usesym 2-fastsym
   LCORR  =      T    Harris-Foulkes like correction to forces

   POTIM  = 0.5000    time-step for ionic-motion
   TEIN   =    0.0    initial temperature
   TEBEG  =    0.0;   TEEND  =   0.0 temperature during run
   SMASS  =  -3.00    Nose mass-parameter (am)
   estimated Nose-frequenzy (Omega)   =  0.10E-29 period in steps = 0.13E+47 mass=  -0.914E-26a.u.
   SCALEE = 1.0000    scale energy and forces
   NPACO  =    256;   APACO  = 16.0  distance and # of slots for P.C.
   PSTRESS=    0.0 pullay stress

  Mass of Ions in am
   POMASS =   1.00  9.01
  Ionic Valenz
   ZVAL   =   1.00  2.00
  Atomic Wigner-Seitz radii
   RWIGS  =  -1.00 -1.00
  virtual crystal weights 
   VCA    =   1.00  1.00
   NELECT =       4.0000    total number of electrons
   NUPDOWN=      -1.0000    fix difference up-down

 DOS related values:
   EMIN   =  10.00;   EMAX   =-10.00  energy-range for DOS
   EFERMI =   0.00
   ISMEAR =     0;   SIGMA  =   0.10  broadening in eV -4-tet -1-fermi 0-gaus

 Electronic relaxation 2 (details)
   IALGO  =     38    algorithm
   LDIAG  =      T    sub-space diagonalisation (order eigenvalues)
   LSUBROT=      F    optimize rotation matrix (better conditioning)
   TURBO    =      0    0=normal 1=particle mesh
   IRESTART =      0    0=no restart 2=restart with 2 vectors
   NREBOOT  =      0    no. of reboots
   NMIN     =      0    reboot dimension
   EREF     =   0.00    reference energy to select bands
   IMIX   =      4    mixing-type and parameters
     AMIX     =   0.40;   BMIX     =  1.00
     AMIX_MAG =   1.60;   BMIX_MAG =  1.00
     AMIN     =   0.10
     WC   =   100.;   INIMIX=   1;  MIXPRE=   1;  MAXMIX= -45

 Intra band minimization:
   WEIMIN = 0.0000     energy-eigenvalue tresh-hold
   EBREAK =  0.42E-05  absolut break condition
   DEPER  =   0.30     relativ break condition  

   TIME   =   0.40     timestep for ELM

  volume/ion in A,a.u.               =    2666.67     17995.55
  Fermi-wavevector in a.u.,A,eV,Ry     =   0.129937  0.245545  0.229714  0.016884
  Thomas-Fermi vector in A             =   0.768634

 Write flags
   LWAVE        =      F    write WAVECAR
   LDOWNSAMPLE  =      F    k-point downsampling of WAVECAR
   LCHARG       =      F    write CHGCAR
   LVTOT        =      F    write LOCPOT, total local potential
   LVHAR        =      F    write LOCPOT, Hartree potential only
   LELF         =      F    write electronic localiz. function (ELF)
   LORBIT       =      0    0 simple, 1 ext, 2 COOP (PROOUT), +10 PAW based schemes


 Dipole corrections
   LMONO  =      F    monopole corrections only (constant potential shift)
   LDIPOL =      F    correct potential (dipole corrections)
   IDIPOL =      0    1-x, 2-y, 3-z, 4-all directions 
   EPSILON=  1.0000000 bulk dielectric constant

 Exchange correlation treatment:
   GGA     =    --    GGA type
   LEXCH   =     2    internal setting for exchange type
   VOSKOWN=      0    Vosko Wilk Nusair interpolation
   LHFCALC =     F    Hartree Fock is set to
   LHFONE  =     F    Hartree Fock one center treatment
   AEXX    =    0.0000 exact exchange contribution

 Linear response parameters
   LEPSILON=     F    determine dielectric tensor
   LRPA    =     F    only Hartree local field effects (RPA)
   LNABLA  =     F    use nabla operator in PAW spheres
   LVEL    =     F    velocity operator in full k-point grid
   LINTERFAST=   F  fast interpolation
   KINTER  =     0    interpolate to denser k-point grid
   CSHIFT  =0.1000    complex shift for real part using Kramers Kronig
   OMEGAMAX=  -1.0    maximum frequency
   DEG_THRESHOLD= 0.2000000E-02 threshold for treating states as degnerate
   RTIME   =   -0.100 relaxation time in fs
  (WPLASMAI=    0.000 imaginary part of plasma frequency in eV, 0.658/RTIME)
   DFIELD  = 0.0000000 0.0000000 0.0000000 field for delta impulse in time

 Orbital magnetization related:
   ORBITALMAG=     F  switch on orbital magnetization
   LCHIMAG   =     F  perturbation theory with respect to B field
   DQ        =  0.001000  dq finite difference perturbation B field
   LLRAUG    =     F  two centre corrections for induced B field



--------------------------------------------------------------------------------------------------------


 Static calculation
 charge density and potential will be updated during run
 non-spin polarized calculation
 Variant of blocked Davidson
 Davidson routine will perform the subspace rotation
 perform sub-space diagonalisation
    after iterative eigenvector-optimisation
 modified Broyden-mixing scheme, WC =      100.0
 initial mixing is a Kerker type mixing with AMIX =  0.4000 and BMIX =      1.0000
 Hartree-type preconditioning will be used
 using additional bands            4
 real space projection scheme for non local part
 use partial core corrections
 calculate Harris-corrections to forces   (improved forces if not selfconsistent)
 use of overlap-Matrix (Vanderbilt PP)
 Gauss-broadening in eV      SIGMA  =   0.10


--------------------------------------------------------------------------------------------------------


  energy-cutoff  :      200.00
  volume of cell :     8000.00
      direct lattice vectors                 reciprocal lattice vectors
    20.000000000  0.000000000  0.000000000     0.050000000  0.000000000  0.000000000
     0.000000000 20.000000000  0.000000000     0.000000000  0.050000000  0.000000000
     0.000000000  0.000000000 20.000000000     0.000000000  0.000000000  0.050000000

  length of vectors
    20.000000000 20.000000000 20.000000000     0.050000000  0.050000000  0.050000000



 k-points in units of 2pi/SCALE and weight: KPOINTS created by Atomic Simulation Env
   0.00000000  0.00000000  0.00000000       1.000

 k-points in reciprocal lattice and weights: KPOINTS created by Atomic Simulation Env
   0.00000000  0.00000000  0.00000000       1.000

 position of ions in fractional coordinates (direct lattice) 
   0.50000000  0.50000000  0.56650000
   0.50000000  0.50000000  0.43350000
   0.50000000  0.50000000  0.50000000

 position of ions in cartesian coordinates  (Angst):
  10.00000000 10.00000000 11.33000000
  10.00000000 10.00000000  8.67000000
  10.00000000 10.00000000 10.00000000



--------------------------------------------------------------------------------------------------------


 k-point   1 :   0.0000 0.0000 0.0000  plane waves:   51435

 maximum and minimum number of plane-waves per node :     51435    51435

 maximum number of plane-waves:     51435
 maximum index in each direction: 
   IXMAX=   23   IYMAX=   23   IZMAX=   23
   IXMIN=  -23   IYMIN=  -23   IZMIN=  -23


 serial   3D FFT for wavefunctions
 parallel 3D FFT for charge:
    minimum data exchange during FFTs selected (reduces bandwidth)


 total amount of memory used by VASP MPI-rank0   299009. kBytes
=======================================================================

   base      :      30000. kBytes
   nonlr-proj:        331. kBytes
   fftplans  :      94700. kBytes
   grid      :     169030. kBytes
   one-center:          9. kBytes
   wavefun   :       4939. kBytes

     INWAV:  cpu time    0.0000: real time    0.0000
 Broyden mixing: mesh for mixing (old mesh)
   NGX = 47   NGY = 47   NGZ = 47
  (NGX  =140   NGY  =140   NGZ  =140)
  gives a total of 103823 points

 initial charge density was supplied:
 charge density of overlapping atoms calculated
 number of electron       4.0000000 magnetization 
 keeping initial charge density in first step


--------------------------------------------------------------------------------------------------------


 Maximum index for non-local projection operator         1703
 Maximum index for augmentation-charges         1365 (set IRDMAX)


--------------------------------------------------------------------------------------------------------


 First call to EWALD:  gamma=   0.089
 Maximum number of real-space cells 3x 3x 3
 Maximum number of reciprocal cells 3x 3x 3

    FEWALD:  cpu time    0.0009: real time    0.0009


--------------------------------------- Iteration      1(   1)  ---------------------------------------


    POTLOK:  cpu time    0.6346: real time    1.0855
    SETDIJ:  cpu time    0.0025: real time    0.0025
     EDDAV:  cpu time    0.8211: real time    0.8239
       DOS:  cpu time    0.0002: real time    0.0002
    --------------------------------------------
      LOOP:  cpu time    1.4584: real time    1.9121

 eigenvalue-minimisations  :    24
 total energy-change (2. order) :-0.1820418E+00  (-0.5773940E+02)
 number of electron       4.0000000 magnetization 
 augmentation part        4.0000000 magnetization 

 Free energy of the ion-electron system (eV)
  ---------------------------------------------------
  alpha Z        PSCENC =         0.00697253
  Ewald energy   TEWEN  =        32.43271813
  -Hartree energ DENC   =       -58.03259353
  -exchange      EXHF   =         0.00000000
  -V(xc)+E(xc)   XCENC  =         6.77802690
  PAW double counting   =        19.92730329      -19.21401328
  entropy T*S    EENTRO =        -0.00000000
  eigenvalues    EBANDS =       -33.36204722
  atomic energy  EATOM  =        51.28159139
  Solvation  Ediel_sol  =         0.00000000
  ---------------------------------------------------
  free energy    TOTEN  =        -0.18204178 eV

  energy without entropy =       -0.18204178  energy(sigma->0) =       -0.18204178


--------------------------------------------------------------------------------------------------------




--------------------------------------- Iteration      1(   2)  ---------------------------------------


     EDDAV:  cpu time    0.4667: real time    0.4684
       DOS:  cpu time    0.0001: real time    0.0001
    --------------------------------------------
      LOOP:  cpu time    0.4668: real time    0.4686

 eigenvalue-minimisations  :    12
 total energy-change (2. order) :-0.9363088E+01  (-0.9363088E+01)
 number of electron       4.0000000 magnetization 
 augmentation part        4.0000000 magnetization 

 Free energy of the ion-electron system (eV)
  ---------------------------------------------------
  alpha Z        PSCENC =         0.00697253
  Ewald energy   TEWEN  =        32.43271813
  -Hartree energ DENC   =       -58.03259353
  -exchange      EXHF   =         0.00000000
  -V(xc)+E(xc)   XCENC  =         6.77802690
  PAW double counting   =        19.92730329      -19.21401328
  entropy T*S    EENTRO =        -0.00000000
  eigenvalues    EBANDS =       -42.72513512
  atomic energy  EATOM  =        51.28159139
  Solvation  Ediel_sol  =         0.00000000
  ---------------------------------------------------
  free energy    TOTEN  =        -9.54512968 eV

  energy without entropy =       -9.54512968  energy(sigma->0) =       -9.54512968


--------------------------------------------------------------------------------------------------------




--------------------------------------- Iteration      1(   3)  ---------------------------------------


     EDDAV:  cpu time    0.6320: real time    0.6341
       DOS:  cpu time    0.0001: real time    0.0001
    --------------------------------------------
      LOOP:  cpu time    0.6321: real time    0.6342

 eigenvalue-minimisations  :    18
 total energy-change (2. order) :-0.4656438E+00  (-0.4656438E+00)
 number of electron       4.0000000 magnetization 
 augmentation part        4.0000000 magnetization 

 Free energy of the ion-electron system (eV)
  ---------------------------------------------------
  alpha Z        PSCENC =         0.00697253
  Ewald energy   TEWEN  =        32.43271813
  -Hartree energ DENC   =       -58.03259353
  -exchange      EXHF   =         0.00000000
  -V(xc)+E(xc)   XCENC  =         6.77802690
  PAW double counting   =        19.92730329      -19.21401328
  entropy T*S    EENTRO =        -0.00000000
  eigenvalues    EBANDS =       -43.19077896
  atomic energy  EATOM  =        51.28159139
  Solvation  Ediel_sol  =         0.00000000
  ---------------------------------------------------
  free energy    TOTEN  =       -10.01077352 eV

  energy without entropy =      -10.01077352  energy(sigma->0) =      -10.01077352


--------------------------------------------------------------------------------------------------------




--------------------------------------- Iteration      1(   4)  ---------------------------------------


     EDDAV:  cpu time    0.8099: real time    0.8128
       DOS:  cpu time    0.0001: real time    0.0001
    --------------------------------------------
      LOOP:  cpu time    0.8100: real time    0.8129

 eigenvalue-minimisations  :    24
 total energy-change (2. order) :-0.7853920E-03  (-0.7853921E-03)
 number of electron       4.0000000 magnetization 
 augmentation part        4.0000000 magnetization 

 Free energy of the ion-electron system (eV)
  ---------------------------------------------------
  alpha Z        PSCENC =         0.00697253
  Ewald energy   TEWEN  =        32.43271813
  -Hartree energ DENC   =       -58.03259353
  -exchange      EXHF   =         0.00000000
  -V(xc)+E(xc)   XCENC  =         6.77802690
  PAW double counting   =        19.92730329      -19.21401328
  entropy T*S    EENTRO =        -0.00000000
  eigenvalues    EBANDS =       -43.19156435
  atomic energy  EATOM  =        51.28159139
  Solvation  Ediel_sol  =         0.00000000
  ---------------------------------------------------
  free energy    TOTEN  =       -10.01155891 eV

  energy without entropy =      -10.01155891  energy(sigma->0) =      -10.01155891


--------------------------------------------------------------------------------------------------------




--------------------------------------- Iteration      1(   5)  ---------------------------------------


     EDDAV:  cpu time    0.6377: real time    0.6399
       DOS:  cpu time    0.0001: real time    0.0001
    CHARGE:  cpu time    0.1331: real time    0.1336
    MIXING:  cpu time    0.0615: real time    0.0617
    --------------------------------------------
      LOOP:  cpu time    0.8324: real time    0.8353

 eigenvalue-minimisations  :    18
 total energy-change (2. order) :-0.6665056E-07  (-0.6667029E-07)
 number of electron       3.9999941 magnetization 
 augmentation part       -0.0113804 magnetization 

 Broyden mixing:
  rms(total) = 0.59054E+00    rms(broyden)= 0.59020E+00
  rms(prec ) = 0.64996E+00
  weight for this iteration     100.00

 Free energy of the ion-electron system (eV)
  ---------------------------------------------------
  alpha Z        PSCENC =         0.00697253
  Ewald energy   TEWEN  =        32.43271813
  -Hartree energ DENC   =       -58.03259353
  -exchange      EXHF   =         0.00000000
  -V(xc)+E(xc)   XCENC  =         6.77802690
  PAW double counting   =        19.92730329      -19.21401328
  entropy T*S    EENTRO =        -0.00000000
  eigenvalues    EBANDS =       -43.19156441
  atomic energy  EATOM  =        51.28159139
  Solvation  Ediel_sol  =         0.00000000
  ---------------------------------------------------
  free energy    TOTEN  =       -10.01155898 eV

  energy without entropy =      -10.01155898  energy(sigma->0) =      -10.01155898


--------------------------------------------------------------------------------------------------------




--------------------------------------- Iteration      1(   6)  ---------------------------------------


    POTLOK:  cpu time    0.6167: real time    0.6184
    SETDIJ:  cpu time    0.0025: real time    0.0025
     EDDAV:  cpu time    0.6371: real time    0.6392
       DOS:  cpu time    0.0001: real time    0.0001
    CHARGE:  cpu time    0.1301: real time    0.1306
    MIXING:  cpu time    0.0625: real time    0.0627
    --------------------------------------------
      LOOP:  cpu time    1.4491: real time    1.4536

 eigenvalue-minimisations  :    18
 total energy-change (2. order) : 0.9868749E+00  (-0.7300714E-01)
 number of electron       3.9999946 magnetization 
 augmentation part       -0.0157835 magnetization 

 Broyden mixing:
  rms(total) = 0.31572E+00    rms(broyden)= 0.31566E+00
  rms(prec ) = 0.35034E+00
  weight for this iteration     100.00

 eigenvalues of (default mixing * dielectric matrix)
  average eigenvalue GAMMA=   2.0809
  2.0809

 Free energy of the ion-electron system (eV)
  ---------------------------------------------------
  alpha Z        PSCENC =         0.00697253
  Ewald energy   TEWEN  =        32.43271813
  -Hartree energ DENC   =       -62.09372969
  -exchange      EXHF   =         0.00000000
  -V(xc)+E(xc)   XCENC  =         7.34932755
  PAW double counting   =        43.01008734      -42.33116221
  entropy T*S    EENTRO =        -0.00000000
  eigenvalues    EBANDS =       -38.68048909
  atomic energy  EATOM  =        51.28159139
  Solvation  Ediel_sol  =         0.00000000
  ---------------------------------------------------
  free energy    TOTEN  =        -9.02468405 eV

  energy without entropy =       -9.02468405  energy(sigma->0) =       -9.02468405


--------------------------------------------------------------------------------------------------------




--------------------------------------- Iteration      1(   7)  ---------------------------------------


    POTLOK:  cpu time    0.6152: real time    0.6169
    SETDIJ:  cpu time    0.0026: real time    0.0026
     EDDAV:  cpu time    0.8126: real time    0.8154
       DOS:  cpu time    0.0001: real time    0.0001
    CHARGE:  cpu time    0.1301: real time    0.1306
    MIXING:  cpu time    0.0643: real time    0.0645
    --------------------------------------------
      LOOP:  cpu time    1.6249: real time    1.6301

 eigenvalue-minimisations  :    24
 total energy-change (2. order) : 0.4461206E+00  (-0.1148701E+00)
 number of electron       3.9999953 magnetization 
 augmentation part       -0.0202476 magnetization 

 Broyden mixing:
  rms(total) = 0.54480E-01    rms(broyden)= 0.53867E-01
  rms(prec ) = 0.60306E-01
  weight for this iteration     100.00

 eigenvalues of (default mixing * dielectric matrix)
  average eigenvalue GAMMA=   2.2911
  2.2911  2.2911

 Free energy of the ion-electron system (eV)
  ---------------------------------------------------
  alpha Z        PSCENC =         0.00697253
  Ewald energy   TEWEN  =        32.43271813
  -Hartree energ DENC   =       -68.09969473
  -exchange      EXHF   =         0.00000000
  -V(xc)+E(xc)   XCENC  =         8.17256497
  PAW double counting   =        84.48449860      -83.85173502
  entropy T*S    EENTRO =        -0.00000000
  eigenvalues    EBANDS =       -33.00547933
  atomic energy  EATOM  =        51.28159139
  Solvation  Ediel_sol  =         0.00000000
  ---------------------------------------------------
  free energy    TOTEN  =        -8.57856346 eV

  energy without entropy =       -8.57856346  energy(sigma->0) =       -8.57856346


--------------------------------------------------------------------------------------------------------




--------------------------------------- Iteration      1(   8)  ---------------------------------------


    POTLOK:  cpu time    0.6147: real time    0.6163
    SETDIJ:  cpu time    0.0026: real time    0.0026
     EDDAV:  cpu time    0.8166: real time    0.8195
       DOS:  cpu time    0.0001: real time    0.0001
    CHARGE:  cpu time    0.1303: real time    0.1308
    MIXING:  cpu time    0.0662: real time    0.0664
    --------------------------------------------
      LOOP:  cpu time    1.6305: real time    1.6357

 eigenvalue-minimisations  :    24
 total energy-change (2. order) :-0.6415695E-02  (-0.1194590E-02)
 number of electron       3.9999953 magnetization 
 augmentation part       -0.0200540 magnetization 

 Broyden mixing:
  rms(total) = 0.15321E-01    rms(broyden)= 0.15248E-01
  rms(prec ) = 0.21067E-01
  weight for this iteration     100.00

 eigenvalues of (default mixing * dielectric matrix)
  average eigenvalue GAMMA=   1.9803
  1.1829  2.7323  2.0259

 Free energy of the ion-electron system (eV)
  ---------------------------------------------------
  alpha Z        PSCENC =         0.00697253
  Ewald energy   TEWEN  =        32.43271813
  -Hartree energ DENC   =       -68.56740935
  -exchange      EXHF   =         0.00000000
  -V(xc)+E(xc)   XCENC  =         8.18416159
  PAW double counting   =        86.25387124      -85.61883379
  entropy T*S    EENTRO =        -0.00000000
  eigenvalues    EBANDS =       -32.55805091
  atomic energy  EATOM  =        51.28159139
  Solvation  Ediel_sol  =         0.00000000
  ---------------------------------------------------
  free energy    TOTEN  =        -8.58497916 eV

  energy without entropy =       -8.58497916  energy(sigma->0) =       -8.58497916


--------------------------------------------------------------------------------------------------------




--------------------------------------- Iteration      1(   9)  ---------------------------------------


    POTLOK:  cpu time    0.6161: real time    0.6177
    SETDIJ:  cpu time    0.0026: real time    0.0026
     EDDAV:  cpu time    0.6372: real time    0.6393
       DOS:  cpu time    0.0001: real time    0.0001
    CHARGE:  cpu time    0.1301: real time    0.1306
    MIXING:  cpu time    0.0683: real time    0.0685
    --------------------------------------------
      LOOP:  cpu time    1.4544: real time    1.4589

 eigenvalue-minimisations  :    18
 total energy-change (2. order) : 0.5355899E-03  (-0.5254611E-03)
 number of electron       3.9999953 magnetization 
 augmentation part       -0.0202318 magnetization 

 Broyden mixing:
  rms(total) = 0.71735E-02    rms(broyden)= 0.71408E-02
  rms(prec ) = 0.11018E-01
  weight for this iteration     100.00

 eigenvalues of (default mixing * dielectric matrix)
  average eigenvalue GAMMA=   2.3224
  0.9998  3.4918  2.7394  2.0585

 Free energy of the ion-electron system (eV)
  ---------------------------------------------------
  alpha Z        PSCENC =         0.00697253
  Ewald energy   TEWEN  =        32.43271813
  -Hartree energ DENC   =       -69.14872771
  -exchange      EXHF   =         0.00000000
  -V(xc)+E(xc)   XCENC  =         8.25191410
  PAW double counting   =        88.81854291      -88.18486085
  entropy T*S    EENTRO =        -0.00000000
  eigenvalues    EBANDS =       -32.04259406
  atomic energy  EATOM  =        51.28159139
  Solvation  Ediel_sol  =         0.00000000
  ---------------------------------------------------
  free energy    TOTEN  =        -8.58444357 eV

  energy without entropy =       -8.58444357  energy(sigma->0) =       -8.58444357


--------------------------------------------------------------------------------------------------------




--------------------------------------- Iteration      1(  10)  ---------------------------------------


    POTLOK:  cpu time    0.6146: real time    0.6163
    SETDIJ:  cpu time    0.0026: real time    0.0026
     EDDAV:  cpu time    0.6377: real time    0.6399
       DOS:  cpu time    0.0001: real time    0.0001
    CHARGE:  cpu time    0.1281: real time    0.1286
    MIXING:  cpu time    0.0697: real time    0.0699
    --------------------------------------------
      LOOP:  cpu time    1.4529: real time    1.4574

 eigenvalue-minimisations  :    18
 total energy-change (2. order) :-0.6141582E-02  (-0.2610885E-03)
 number of electron       3.9999953 magnetization 
 augmentation part       -0.0204327 magnetization 

 Broyden mixing:
  rms(total) = 0.33840E-02    rms(broyden)= 0.33756E-02
  rms(prec ) = 0.49286E-02
  weight for this iteration     100.00

 eigenvalues of (default mixing * dielectric matrix)
  average eigenvalue GAMMA=   2.0272
  3.4851  2.7081  1.9182  1.1671  0.8575

 Free energy of the ion-electron system (eV)
  ---------------------------------------------------
  alpha Z        PSCENC =         0.00697253
  Ewald energy   TEWEN  =        32.43271813
  -Hartree energ DENC   =       -69.44960390
  -exchange      EXHF   =         0.00000000
  -V(xc)+E(xc)   XCENC  =         8.27313753
  PAW double counting   =        86.96054033      -86.32381528
  entropy T*S    EENTRO =        -0.00000000
  eigenvalues    EBANDS =       -31.77212589
  atomic energy  EATOM  =        51.28159139
  Solvation  Ediel_sol  =         0.00000000
  ---------------------------------------------------
  free energy    TOTEN  =        -8.59058515 eV

  energy without entropy =       -8.59058515  energy(sigma->0) =       -8.59058515


--------------------------------------------------------------------------------------------------------




--------------------------------------- Iteration      1(  11)  ---------------------------------------


    POTLOK:  cpu time    0.6130: real time    0.6144
    SETDIJ:  cpu time    0.0025: real time    0.0026
     EDDAV:  cpu time    0.6336: real time    0.6355
       DOS:  cpu time    0.0001: real time    0.0001
    CHARGE:  cpu time    0.1281: real time    0.1285
    MIXING:  cpu time    0.0717: real time    0.0719
    --------------------------------------------
      LOOP:  cpu time    1.4491: real time    1.4531

 eigenvalue-minimisations  :    18
 total energy-change (2. order) :-0.1577457E-02  (-0.2012345E-04)
 number of electron       3.9999953 magnetization 
 augmentation part       -0.0203229 magnetization 

 Broyden mixing:
  rms(total) = 0.24281E-02    rms(broyden)= 0.24281E-02
  rms(prec ) = 0.37892E-02
  weight for this iteration     100.00

 eigenvalues of (default mixing * dielectric matrix)
  average eigenvalue GAMMA=   2.3893
  4.8156  2.8993  2.7106  1.9899  1.0463  0.8740

 Free energy of the ion-electron system (eV)
  ---------------------------------------------------
  alpha Z        PSCENC =         0.00697253
  Ewald energy   TEWEN  =        32.43271813
  -Hartree energ DENC   =       -69.43958140
  -exchange      EXHF   =         0.00000000
  -V(xc)+E(xc)   XCENC  =         8.26685328
  PAW double counting   =        87.13934030      -86.50321815
  entropy T*S    EENTRO =        -0.00000000
  eigenvalues    EBANDS =       -31.77683870
  atomic energy  EATOM  =        51.28159139
  Solvation  Ediel_sol  =         0.00000000
  ---------------------------------------------------
  free energy    TOTEN  =        -8.59216261 eV

  energy without entropy =       -8.59216261  energy(sigma->0) =       -8.59216261


--------------------------------------------------------------------------------------------------------




--------------------------------------- Iteration      1(  12)  ---------------------------------------


    POTLOK:  cpu time    0.6139: real time    0.6153
    SETDIJ:  cpu time    0.0026: real time    0.0026
     EDDAV:  cpu time    0.4703: real time    0.4719
       DOS:  cpu time    0.0001: real time    0.0001
    CHARGE:  cpu time    0.1293: real time    0.1298
    MIXING:  cpu time    0.0743: real time    0.0745
    --------------------------------------------
      LOOP:  cpu time    1.2905: real time    1.2943

 eigenvalue-minimisations  :    12
 total energy-change (2. order) :-0.3176225E-02  (-0.1148525E-03)
 number of electron       3.9999953 magnetization 
 augmentation part       -0.0202810 magnetization 

 Broyden mixing:
  rms(total) = 0.13323E-02    rms(broyden)= 0.13315E-02
  rms(prec ) = 0.18535E-02
  weight for this iteration     100.00

 eigenvalues of (default mixing * dielectric matrix)
  average eigenvalue GAMMA=   2.4818
  5.6597  3.4924  2.4913  0.9775  0.9775  1.9321  1.8421

 Free energy of the ion-electron system (eV)
  ---------------------------------------------------
  alpha Z        PSCENC =         0.00697253
  Ewald energy   TEWEN  =        32.43271813
  -Hartree energ DENC   =       -69.56355916
  -exchange      EXHF   =         0.00000000
  -V(xc)+E(xc)   XCENC  =         8.27319443
  PAW double counting   =        87.62978761      -86.99472632
  entropy T*S    EENTRO =        -0.00000000
  eigenvalues    EBANDS =       -31.66131744
  atomic energy  EATOM  =        51.28159139
  Solvation  Ediel_sol  =         0.00000000
  ---------------------------------------------------
  free energy    TOTEN  =        -8.59533883 eV

  energy without entropy =       -8.59533883  energy(sigma->0) =       -8.59533883


--------------------------------------------------------------------------------------------------------




--------------------------------------- Iteration      1(  13)  ---------------------------------------


    POTLOK:  cpu time    0.6163: real time    0.6179
    SETDIJ:  cpu time    0.0026: real time    0.0026
     EDDAV:  cpu time    0.6457: real time    0.6480
       DOS:  cpu time    0.0001: real time    0.0001
    CHARGE:  cpu time    0.1310: real time    0.1315
    MIXING:  cpu time    0.0763: real time    0.0766
    --------------------------------------------
      LOOP:  cpu time    1.4720: real time    1.4767

 eigenvalue-minimisations  :    18
 total energy-change (2. order) :-0.1165015E-02  (-0.1318304E-04)
 number of electron       3.9999953 magnetization 
 augmentation part       -0.0203169 magnetization 

 Broyden mixing:
  rms(total) = 0.42801E-03    rms(broyden)= 0.42761E-03
  rms(prec ) = 0.73186E-03
  weight for this iteration     100.00

 eigenvalues of (default mixing * dielectric matrix)
  average eigenvalue GAMMA=   2.6731
  6.5821  4.3647  2.9242  2.4025  1.9533  0.9759  0.9759  1.2058

 Free energy of the ion-electron system (eV)
  ---------------------------------------------------
  alpha Z        PSCENC =         0.00697253
  Ewald energy   TEWEN  =        32.43271813
  -Hartree energ DENC   =       -69.55529876
  -exchange      EXHF   =         0.00000000
  -V(xc)+E(xc)   XCENC  =         8.27014583
  PAW double counting   =        87.36421005      -86.72846752
  entropy T*S    EENTRO =        -0.00000000
  eigenvalues    EBANDS =       -31.66837551
  atomic energy  EATOM  =        51.28159139
  Solvation  Ediel_sol  =         0.00000000
  ---------------------------------------------------
  free energy    TOTEN  =        -8.59650385 eV

  energy without entropy =       -8.59650385  energy(sigma->0) =       -8.59650385


--------------------------------------------------------------------------------------------------------




--------------------------------------- Iteration      1(  14)  ---------------------------------------


    POTLOK:  cpu time    0.6171: real time    0.6188
    SETDIJ:  cpu time    0.0025: real time    0.0026
     EDDAV:  cpu time    0.4669: real time    0.4684
       DOS:  cpu time    0.0001: real time    0.0001
    CHARGE:  cpu time    0.1309: real time    0.1314
    MIXING:  cpu time    0.0791: real time    0.0794
    --------------------------------------------
      LOOP:  cpu time    1.2967: real time    1.3007

 eigenvalue-minimisations  :    12
 total energy-change (2. order) :-0.6189916E-03  (-0.7675992E-05)
 number of electron       3.9999953 magnetization 
 augmentation part       -0.0203238 magnetization 

 Broyden mixing:
  rms(total) = 0.43336E-03    rms(broyden)= 0.43330E-03
  rms(prec ) = 0.55200E-03
  weight for this iteration     100.00

 eigenvalues of (default mixing * dielectric matrix)
  average eigenvalue GAMMA=   2.8506
  7.5244  4.6558  3.3558  2.8235  2.3504  1.9784  1.0062  1.0062  0.9547

 Free energy of the ion-electron system (eV)
  ---------------------------------------------------
  alpha Z        PSCENC =         0.00697253
  Ewald energy   TEWEN  =        32.43271813
  -Hartree energ DENC   =       -69.55086542
  -exchange      EXHF   =         0.00000000
  -V(xc)+E(xc)   XCENC  =         8.26844580
  PAW double counting   =        87.26461988      -86.62853355
  entropy T*S    EENTRO =        -0.00000000
  eigenvalues    EBANDS =       -31.67207159
  atomic energy  EATOM  =        51.28159139
  Solvation  Ediel_sol  =         0.00000000
  ---------------------------------------------------
  free energy    TOTEN  =        -8.59712284 eV

  energy without entropy =       -8.59712284  energy(sigma->0) =       -8.59712284


--------------------------------------------------------------------------------------------------------




--------------------------------------- Iteration      1(  15)  ---------------------------------------


    POTLOK:  cpu time    0.6190: real time    0.6212
    SETDIJ:  cpu time    0.0026: real time    0.0026
     EDDAV:  cpu time    0.8246: real time    0.8276
       DOS:  cpu time    0.0001: real time    0.0001
    CHARGE:  cpu time    0.1314: real time    0.1319
    MIXING:  cpu time    0.0837: real time    0.0840
    --------------------------------------------
      LOOP:  cpu time    1.6614: real time    1.6674

 eigenvalue-minimisations  :    24
 total energy-change (2. order) :-0.1975671E-03  (-0.1329354E-05)
 number of electron       3.9999953 magnetization 
 augmentation part       -0.0203150 magnetization 

 Broyden mixing:
  rms(total) = 0.25780E-03    rms(broyden)= 0.25766E-03
  rms(prec ) = 0.30175E-03
  weight for this iteration     100.00

 eigenvalues of (default mixing * dielectric matrix)
  average eigenvalue GAMMA=   2.8736
  7.9158  4.9837  3.8862  2.7137  2.2045  2.0522  2.0522  0.9939  0.9939  0.9404

 Free energy of the ion-electron system (eV)
  ---------------------------------------------------
  alpha Z        PSCENC =         0.00697253
  Ewald energy   TEWEN  =        32.43271813
  -Hartree energ DENC   =       -69.56577398
  -exchange      EXHF   =         0.00000000
  -V(xc)+E(xc)   XCENC  =         8.26943056
  PAW double counting   =        87.37772012      -86.74208013
  entropy T*S    EENTRO =        -0.00000000
  eigenvalues    EBANDS =       -31.65789903
  atomic energy  EATOM  =        51.28159139
  Solvation  Ediel_sol  =         0.00000000
  ---------------------------------------------------
  free energy    TOTEN  =        -8.59732041 eV

  energy without entropy =       -8.59732041  energy(sigma->0) =       -8.59732041


--------------------------------------------------------------------------------------------------------




--------------------------------------- Iteration      1(  16)  ---------------------------------------


    POTLOK:  cpu time    0.6173: real time    0.6190
    SETDIJ:  cpu time    0.0026: real time    0.0026
     EDDAV:  cpu time    0.6425: real time    0.6447
       DOS:  cpu time    0.0001: real time    0.0001
    --------------------------------------------
      LOOP:  cpu time    1.2625: real time    1.2664

 eigenvalue-minimisations  :    18
 total energy-change (2. order) :-0.2471385E-04  (-0.7139199E-07)
 number of electron       3.9999953 magnetization 
 augmentation part       -0.0203150 magnetization 

 Free energy of the ion-electron system (eV)
  ---------------------------------------------------
  alpha Z        PSCENC =         0.00697253
  Ewald energy   TEWEN  =        32.43271813
  -Hartree energ DENC   =       -69.56274195
  -exchange      EXHF   =         0.00000000
  -V(xc)+E(xc)   XCENC  =         8.26899941
  PAW double counting   =        87.34256524      -86.70679743
  entropy T*S    EENTRO =        -0.00000000
  eigenvalues    EBANDS =       -31.66065244
  atomic energy  EATOM  =        51.28159139
  Solvation  Ediel_sol  =         0.00000000
  ---------------------------------------------------
  free energy    TOTEN  =        -8.59734512 eV

  energy without entropy =       -8.59734512  energy(sigma->0) =       -8.59734512


--------------------------------------------------------------------------------------------------------




 average (electrostatic) potential at core
  the test charge radii are     0.5201  0.9943
  (the norm of the test charge is              0.9999)
       1 -39.4118       2 -39.4118       3 -41.7451



 E-fermi :  -6.9608     XC(G=0):  -0.1601     alpha+bet : -0.0233

 Fermi energy:        -6.9608454226

 k-point     1 :       0.0000    0.0000    0.0000
  band No.  band energies     occupation 
      1      -8.4049      2.00000
      2      -7.4254      2.00000
      3      -1.8371      0.00000
      4      -1.8371      0.00000
      5      -0.1087      0.00000
      6       0.2213      0.00000


--------------------------------------------------------------------------------------------------------


 soft charge-density along one line, spin component           1
         0         1         2         3         4         5         6         7         8         9
 total charge-density along one line

 pseudopotential strength for first ion, spin component:           1
 -2.152  -3.775   0.000   0.001   0.000
 -3.775  -6.542   0.000   0.003   0.000
  0.000   0.000  -0.339   0.000   0.000
  0.001   0.003   0.000  -0.337   0.000
  0.000   0.000   0.000   0.000  -0.339
 total augmentation occupancy for first ion, spin component:           1
  4.843  -1.233  -0.000  -0.220  -0.000
 -1.233   0.314  -0.000   0.056  -0.000
 -0.000  -0.000   0.000   0.000   0.000
 -0.220   0.056   0.000   0.010   0.000
 -0.000  -0.000   0.000   0.000   0.000


------------------------ aborting loop because EDIFF is reached ----------------------------------------


    CHARGE:  cpu time    0.1285: real time    0.1290
    FORLOC:  cpu time    0.1588: real time    0.1591
    FORNL :  cpu time    0.1527: real time    0.1533
    STRESS:  cpu time    0.6840: real time    0.6859
    FORCOR:  cpu time    0.6034: real time    0.6048
    FORHAR:  cpu time    0.6109: real time    0.6124
    MIXING:  cpu time    0.0871: real time    0.0875
    OFIELD:  cpu time    0.0000: real time    0.0000

  FORCE on cell =-STRESS in cart. coord.  units (eV):
  Direction    XX          YY          ZZ          XY          YZ          ZX
  --------------------------------------------------------------------------------------
  Alpha Z     0.00697     0.00697     0.00697
  Ewald      -5.47399    -5.47399    43.38069     0.00000     0.00000     0.00000
  Hartree    17.70324    17.70324    34.15675    -0.00000    -0.00000    -0.00000
  E(xc)      -9.61027    -9.61027    -9.90906     0.00000     0.00000    -0.00000
  Local     -30.89797   -30.89797   -98.15287     0.00000    -0.00000     0.00000
  n-local     0.11506     0.11506     2.40098     0.00000    -0.00000    -0.00000
  augment    -0.19636    -0.19636    -0.05418    -0.00000    -0.00000     0.00000
  Kinetic    27.46439    27.46439    28.04419    -0.00000     0.00000    -0.00000
  Fock        0.00000     0.00000     0.00000     0.00000     0.00000     0.00000
  -------------------------------------------------------------------------------------
  Total      -0.88892    -0.88892    -0.12654    -0.00000     0.00000     0.00000
  in kB      -0.17803    -0.17803    -0.02534    -0.00000     0.00000     0.00000
  external pressure =       -0.13 kB  Pullay stress =        0.00 kB


 VOLUME and BASIS-vectors are now :
 -----------------------------------------------------------------------------
  energy-cutoff  :      200.00
  volume of cell :     8000.00
      direct lattice vectors                 reciprocal lattice vectors
    20.000000000  0.000000000  0.000000000     0.050000000  0.000000000  0.000000000
     0.000000000 20.000000000  0.000000000     0.000000000  0.050000000  0.000000000
     0.000000000  0.000000000 20.000000000     0.000000000  0.000000000  0.050000000

  length of vectors
    20.000000000 20.000000000 20.000000000     0.050000000  0.050000000  0.050000000


 FORCES acting on ions
    electron-ion (+dipol)            ewald-force                    non-local-force                 convergence-correction
 -----------------------------------------------------------------------------------------------
   0.287E-13 0.441E-13 -.156E+02   -.130E-18 -.932E-19 0.183E+02   0.303E-27 -.353E-27 -.233E+01   0.704E-15 0.837E-16 -.153E-03
   0.284E-13 0.546E-13 0.156E+02   0.469E-18 0.398E-18 -.183E+02   -.404E-27 -.328E-27 0.233E+01   0.913E-15 0.683E-16 0.153E-03
   0.210E-13 0.155E-13 0.619E-13   -.457E-18 -.809E-18 0.630E-18   0.388E-25 -.355E-25 0.808E-27   0.142E-14 0.276E-15 -.656E-15
 -----------------------------------------------------------------------------------------------
   0.780E-13 0.114E-12 0.957E-13   -.118E-18 -.505E-18 0.630E-18   0.387E-25 -.362E-25 -.444E-15   0.304E-14 0.428E-15 -.135E-14


 POSITION                                       TOTAL-FORCE (eV/Angst)
 -----------------------------------------------------------------------------------
     10.00000     10.00000     11.33000         0.000000     -0.000000      0.380813
     10.00000     10.00000      8.67000        -0.000000      0.000000     -0.380813
     10.00000     10.00000     10.00000        -0.000000      0.000000     -0.000000
 -----------------------------------------------------------------------------------
    total drift:                                0.000000      0.000000      0.000000


--------------------------------------------------------------------------------------------------------



  FREE ENERGIE OF THE ION-ELECTRON SYSTEM (eV)
  ---------------------------------------------------
  free  energy   TOTEN  =        -8.59734512 eV

  energy  without entropy=       -8.59734512  energy(sigma->0) =       -8.59734512



--------------------------------------------------------------------------------------------------------


    POTLOK:  cpu time    0.6218: real time    0.6235


--------------------------------------------------------------------------------------------------------


     LOOP+:  cpu time   23.2955: real time   24.4955
    4ORBIT:  cpu time    0.0000: real time    0.0000

 total amount of memory used by VASP MPI-rank0   299009. kBytes
=======================================================================

   base      :      30000. kBytes
   nonlr-proj:        331. kBytes
   fftplans  :      94700. kBytes
   grid      :     169030. kBytes
   one-center:          9. kBytes
   wavefun   :       4939. kBytes

  
  
 General timing and accounting informations for this job:
 ========================================================
  
                  Total CPU time used (sec):       26.052
                            User time (sec):       25.680
                          System time (sec):        0.372
                         Elapsed time (sec):       30.476
  
                   Maximum memory used (kb):      593660.
                   Average memory used (kb):          N/A
  
                          Minor page faults:        73708
                          Major page faults:            0
                 Voluntary context switches:         1599
