<?xml version="1.0" encoding="ISO-8859-1"?>
<modeling>
 <generator>
  <i name="program" type="string">vasp </i>
  <i name="version" type="string">6.2.1  </i>
  <i name="subversion" type="string">16May21 (build Dec 20 2021 17:02:34) complex                          parallel </i>
  <i name="platform" type="string">LinuxGNU </i>
  <i name="date" type="string">2025 11 26 </i>
  <i name="time" type="string">19:15:02 </i>
 </generator>
 <incar>
  <i type="int" name="ISTART">     0</i>
  <i type="string" name="PREC">Normal</i>
  <i type="int" name="ICHARG">     2</i>
  <i type="int" name="IBRION">    -1</i>
  <i name="EDIFF">      0.00010000</i>
  <i type="int" name="NSW">     0</i>
  <i type="int" name="ISIF">     2</i>
  <i name="ENCUT">    500.00000000</i>
  <i type="string" name="LREAL">Auto</i>
  <i type="int" name="ISMEAR">     0</i>
  <i name="SIGMA">      0.10000000</i>
  <i type="logical" name="LWAVE"> F  </i>
  <i type="logical" name="LCHARG"> F  </i>
  <i type="string" name="GGA">PE</i>
 </incar>
 <primitive_cell>
  <structure name="primitive_cell" >
   <crystal>
    <varray name="basis" >
     <v>      20.00000000       0.00000000       0.00000000 </v>
     <v>       0.00000000      20.00000000       0.00000000 </v>
     <v>       0.00000000       0.00000000      20.00000000 </v>
    </varray>
    <i name="volume">   8000.00000000 </i>
    <varray name="rec_basis" >
     <v>       0.05000000       0.00000000       0.00000000 </v>
     <v>       0.00000000       0.05000000       0.00000000 </v>
     <v>       0.00000000       0.00000000       0.05000000 </v>
    </varray>
   </crystal>
   <varray name="positions" >
    <v>       0.50000000       0.50000000       0.56650000 </v>
    <v>       0.50000000       0.50000000       0.43350000 </v>
    <v>       0.50000000       0.50000000       0.50000000 </v>
   </varray>
  </structure>
  <varray name="primitive_index" >
   <v type="int" >        1 </v>
   <v type="int" >        2 </v>
   <v type="int" >        3 </v>
  </varray>
 </primitive_cell>
 <kpoints>
  <generation param="Monkhorst-Pack">
   <v type="int" name="divisions">       1        1        1 </v>
   <v name="usershift">      0.00000000       0.00000000       0.00000000 </v>
   <v name="genvec1">      1.00000000       0.00000000       0.00000000 </v>
   <v name="genvec2">      0.00000000       1.00000000       0.00000000 </v>
   <v name="genvec3">      0.00000000       0.00000000       1.00000000 </v>
   <v name="shift">      0.00000000       0.00000000       0.00000000 </v>
  </generation>
  <varray name="kpointlist" >
   <v>       0.00000000       0.00000000       0.00000000 </v>
  </varray>
  <varray name="weights" >
   <v>       1.00000000 </v>
  </varray>
 </kpoints>
 <parameters>
  <separator name="general" >
   <i type="string" name="SYSTEM">unknown system</i>
   <i type="logical" name="LCOMPAT"> F  </i>
  </separator>
  <separator name="electronic" >
   <i type="string" name="PREC">normal</i>
   <i name="ENMAX">    500.00000000</i>
   <i name="ENAUG">    400.00000000</i>
   <i name="EDIFF">      0.00010000</i>
   <i type="int" name="IALGO">    38</i>
   <i type="int" name="IWAVPR">    10</i>
   <i type="int" name="NBANDS">     6</i>
   <i type="int" name="NBANDSLOW">    -1</i>
   <i type="int" name="NBANDSHIGH">    -1</i>
   <i name="NELECT">      4.00000000</i>
   <i type="int" name="TURBO">     0</i>
   <i type="int" name="IRESTART">     0</i>
   <i type="int" name="NREBOOT">     0</i>
   <i type="int" name="NMIN">     0</i>
   <i name="EREF">      0.00000000</i>
   <separator name="electronic smearing" >
    <i type="int" name="ISMEAR">     0</i>
    <i name="SIGMA">      0.10000000</i>
    <i name="KSPACING">      0.50000000</i>
    <i type="logical" name="KGAMMA"> T  </i>
    <i type="logical" name="KBLOWUP"> T  </i>
   </separator>
   <separator name="electronic projectors" >
    <i type="logical" name="LREAL"> T  </i>
    <v name="ROPT">     -0.00050000     -0.00050000</v>
    <i type="int" name="LMAXPAW">  -100</i>
    <i type="int" name="LMAXMIX">     2</i>
    <i type="logical" name="NLSPLINE"> F  </i>
   </separator>
   <separator name="electronic startup" >
    <i type="int" name="ISTART">     0</i>
    <i type="int" name="ICHARG">     2</i>
    <i type="int" name="INIWAV">     1</i>
   </separator>
   <separator name="electronic spin" >
    <i type="int" name="ISPIN">     1</i>
    <i type="logical" name="LNONCOLLINEAR"> F  </i>
    <v name="MAGMOM">      1.00000000      1.00000000      1.00000000</v>
    <i name="NUPDOWN">     -1.00000000</i>
    <i type="logical" name="LSORBIT"> F  </i>
    <v name="SAXIS">      0.00000000      0.00000000      1.00000000</v>
    <i type="logical" name="LSPIRAL"> F  </i>
    <v name="QSPIRAL">      0.00000000      0.00000000      0.00000000</v>
    <i type="logical" name="LZEROZ"> F  </i>
   </separator>
   <separator name="electronic exchange-correlation" >
    <i type="logical" name="LASPH"> F  </i>
    <i type="logical" name="LMETAGGA"> F  </i>
   </separator>
   <separator name="electronic convergence" >
    <i type="int" name="NELM">    60</i>
    <i type="int" name="NELMDL">    -5</i>
    <i type="int" name="NELMIN">     2</i>
    <i name="ENINI">    500.00000000</i>
    <separator name="electronic convergence detail" >
     <i type="logical" name="LDIAG"> T  </i>
     <i type="logical" name="LSUBROT"> F  </i>
     <i name="WEIMIN">      0.00000000</i>
     <i name="EBREAK">      0.00000417</i>
     <i name="DEPER">      0.30000000</i>
     <i type="int" name="NRMM">     4</i>
     <i name="TIME">      0.40000000</i>
    </separator>
   </separator>
   <separator name="electronic mixer" >
    <i name="AMIX">      0.40000000</i>
    <i name="BMIX">      1.00000000</i>
    <i name="AMIN">      0.10000000</i>
    <i name="AMIX_MAG">      1.60000000</i>
    <i name="BMIX_MAG">      1.00000000</i>
    <separator name="electronic mixer details" >
     <i type="int" name="IMIX">     4</i>
     <i type="logical" name="MIXFIRST"> F  </i>
     <i type="int" name="MAXMIX">   -45</i>
     <i name="WC">    100.00000000</i>
     <i type="int" name="INIMIX">     1</i>
     <i type="int" name="MIXPRE">     1</i>
     <i type="int" name="MREMOVE">     5</i>
    </separator>
   </separator>
   <separator name="electronic dipolcorrection" >
    <i type="logical" name="LDIPOL"> F  </i>
    <i type="logical" name="LMONO"> F  </i>
    <i type="int" name="IDIPOL">     0</i>
    <i name="EPSILON">      1.00000000</i>
    <v name="DIPOL">   -100.00000000   -100.00000000   -100.00000000</v>
    <i name="EFIELD">      0.00000000</i>
   </separator>
  </separator>
  <separator name="grids" >
   <i type="int" name="NGX">   112</i>
   <i type="int" name="NGY">   112</i>
   <i type="int" name="NGZ">   112</i>
   <i type="int" name="NGXF">   224</i>
   <i type="int" name="NGYF">   224</i>
   <i type="int" name="NGZF">   224</i>
   <i type="logical" name="ADDGRID"> F  </i>
  </separator>
  <separator name="ionic" >
   <i type="int" name="NSW">     0</i>
   <i type="int" name="IBRION">    -1</i>
   <i type="int" name="MDALGO">     0</i>
   <i type="int" name="ISIF">     2</i>
   <i name="PSTRESS">      0.00000000</i>
   <i name="EDIFFG">      0.00100000</i>
   <i type="int" name="NFREE">     0</i>
   <i name="POTIM">      0.50000000</i>
   <i name="SMASS">     -3.00000000</i>
   <i name="SCALEE">      1.00000000</i>
  </separator>
  <separator name="ionic md" >
   <i name="TEBEG">      0.00010000</i>
   <i name="TEEND">      0.00010000</i>
   <i type="int" name="NBLOCK">     1</i>
   <i type="int" name="KBLOCK">     1</i>
   <i type="int" name="NPACO">   256</i>
   <i name="APACO">     16.00000000</i>
  </separator>
  <separator name="symmetry" >
   <i type="int" name="ISYM">     2</i>
   <i name="SYMPREC">      0.00001000</i>
  </separator>
  <separator name="dos" >
   <i type="int" name="LORBIT">     0</i>
   <v name="RWIGS">     -1.00000000     -1.00000000</v>
   <i type="int" name="NEDOS">   301</i>
   <i name="EMIN">     10.00000000</i>
   <i name="EMAX">    -10.00000000</i>
   <i name="EFERMI">      0.00000000</i>
  </separator>
  <separator name="writing" >
   <i type="int" name="NWRITE">     2</i>
   <i type="logical" name="LWAVE"> F  </i>
   <i type="logical" name="LDOWNSAMPLE"> F  </i>
   <i type="logical" name="LCHARG"> F  </i>
   <i type="logical" name="LPARD"> F  </i>
   <i type="logical" name="LVTOT"> F  </i>
   <i type="logical" name="LVHAR"> F  </i>
   <i type="logical" name="LELF"> F  </i>
   <i type="logical" name="LOPTICS"> F  </i>
   <v name="STM">      0.00000000      0.00000000      0.00000000      0.00000000      0.00000000      0.00000000      0.00000000</v>
  </separator>
  <separator name="performance" >
   <i type="int" name="NPAR">     1</i>
   <i type="int" name="NSIM">     4</i>
   <i type="int" name="NBLK">    -1</i>
   <i type="logical" name="LPLANE"> T  </i>
   <i type="logical" name="LSCALAPACK"> T  </i>
   <i type="logical" name="LSCAAWARE"> F  </i>
   <i type="logical" name="LSCALU"> F  </i>
   <i type="logical" name="LASYNC"> F  </i>
   <i type="logical" name="LORBITALREAL"> F  </i>
  </separator>
  <separator name="miscellaneous" >
   <i type="int" name="IDIOT">     3</i>
   <i type="int" name="PHON_NSTRUCT">    -1</i>
   <i type="logical" name="LMUSIC"> F  </i>
   <v name="POMASS">      1.00000000      9.01300000</v>
   <v name="DARWINR">      0.00000000      0.00000000</v>
   <v name="DARWINV">      1.00000000      1.00000000</v>
   <i type="logical" name="LCORR"> T  </i>
  </separator>
  <i type="logical" name="GGA_COMPAT"> T  </i>
  <i type="logical" name="LBERRY"> F  </i>
  <i type="int" name="ICORELEVEL">     0</i>
  <i type="logical" name="LDAU"> F  </i>
  <i type="int" name="I_CONSTRAINED_M">     0</i>
  <separator name="electronic exchange-correlation" >
   <i type="string" name="GGA">PE</i>
   <i type="int" name="VOSKOWN">     0</i>
   <i type="logical" name="LHFCALC"> F  </i>
   <i type="string" name="PRECFOCK"></i>
   <i type="logical" name="LSYMGRAD"> F  </i>
   <i type="logical" name="LHFONE"> F  </i>
   <i type="logical" name="LRHFCALC"> F  </i>
   <i type="logical" name="LTHOMAS"> F  </i>
   <i type="logical" name="LMODELHF"> F  </i>
   <i type="logical" name="LFOCKACE"> F  </i>
   <i name="ENCUT4O">     -1.00000000</i>
   <i type="int" name="EXXOEP">     0</i>
   <i type="int" name="FOURORBIT">     0</i>
   <i name="AEXX">      0.00000000</i>
   <i name="HFALPHA">      0.00000000</i>
   <i name="MCALPHA">      0.00000000</i>
   <i name="ALDAX">      1.00000000</i>
   <i name="AGGAX">      1.00000000</i>
   <i name="ALDAC">      1.00000000</i>
   <i name="AGGAC">      1.00000000</i>
   <i type="int" name="NKREDX">     1</i>
   <i type="int" name="NKREDY">     1</i>
   <i type="int" name="NKREDZ">     1</i>
   <i type="logical" name="SHIFTRED"> F  </i>
   <i type="logical" name="ODDONLY"> F  </i>
   <i type="logical" name="EVENONLY"> F  </i>
   <i type="int" name="LMAXFOCK">     0</i>
   <i type="int" name="NMAXFOCKAE">     0</i>
   <i type="logical" name="LFOCKAEDFT"> F  </i>
   <i name="HFSCREEN">      0.00000000</i>
   <i name="HFSCREENC">      0.00000000</i>
   <i type="int" name="NBANDSGWLOW">     0</i>
  </separator>
  <separator name="vdW DFT" >
   <i type="logical" name="LUSE_VDW"> F  </i>
   <i name="Zab_VDW">     -0.84910000</i>
   <i name="PARAM1">      0.12340000</i>
   <i name="PARAM2">      1.00000000</i>
   <i name="PARAM3">      0.00000000</i>
  </separator>
  <separator name="model GW" >
   <i type="int" name="MODEL_GW">     0</i>
   <i name="MODEL_EPS0">   1600.00000000</i>
   <i name="MODEL_ALPHA">      1.00000000</i>
  </separator>
  <separator name="linear response parameters" >
   <i type="logical" name="LEPSILON"> F  </i>
   <i type="logical" name="LRPA"> F  </i>
   <i type="logical" name="LNABLA"> F  </i>
   <i type="logical" name="LVEL"> F  </i>
   <i type="int" name="KINTER">     0</i>
   <i name="CSHIFT">      0.10000000</i>
   <i name="OMEGAMAX">     -1.00000000</i>
   <i name="DEG_THRESHOLD">      0.00200000</i>
   <i name="RTIME">     -0.10000000</i>
   <i name="WPLASMAI">      0.00000000</i>
   <v name="DFIELD">      0.00000000      0.00000000      0.00000000</v>
   <v name="WPLASMA">      0.00000000      0.00000000      0.00000000      0.00000000      0.00000000      0.00000000      0.00000000      0.00000000      0.00000000</v>
  </separator>
  <separator name="orbital magnetization" >
   <i type="logical" name="NUCIND"> F  </i>
   <v name="MAGPOS">      0.00000000      0.00000000      0.00000000</v>
   <i type="logical" name="LNICSALL"> T  </i>
   <i type="logical" name="ORBITALMAG"> F  </i>
   <i type="logical" name="LMAGBLOCH"> F  </i>
   <i type="logical" name="LCHIMAG"> F  </i>
   <i type="logical" name="LGAUGE"> T  </i>
   <i type="int" name="MAGATOM">     0</i>
   <v name="MAGDIPOL">      0.00000000      0.00000000      0.00000000</v>
   <v name="AVECCONST">      0.00000000      0.00000000      0.00000000</v>
  </separator>
  <separator name="response functions" >
   <i type="logical" name="LFINITE_TEMPERATURE"> F  </i>
   <i type="logical" name="LADDER"> F  </i>
   <i type="logical" name="LRPAFORCE"> F  </i>
   <i type="logical" name="LFXC"> F  </i>
   <i type="logical" name="LHARTREE"> T  </i>
   <i type="int" name="IBSE">     0</i>
   <v type="int" name="KPOINT">    -1     0     0     0</v>
   <i type="logical" name="LTCTC"> F  </i>
   <i type="logical" name="LTCTE"> F  </i>
   <i type="logical" name="LTETE"> F  </i>
   <i type="logical" name="LTRIPLET"> F  </i>
   <i type="logical" name="LFXCEPS"> F  </i>
   <i type="logical" name="LFXHEG"> F  </i>
   <i type="int" name="NATURALO">     2</i>
   <i type="logical" name="LHOLEGF"> F  </i>
   <i type="logical" name="L2ORDER"> F  </i>
   <i type="logical" name="LDMP1"> F  </i>
   <i type="logical" name="LMP2LT"> F  </i>
   <i type="logical" name="LSMP2LT"> F  </i>
   <i type="logical" name="LGWLF"> F  </i>
   <i name="ENCUTGW">     -2.00000000</i>
   <i name="ENCUTGWSOFT">     -2.00000000</i>
   <i name="ENCUTLF">     -1.00000000</i>
   <i type="logical" name="LESF_SPLINES"> F  </i>
   <i type="int" name="LMAXMP2">    -1</i>
   <i name="SCISSOR">      0.00000000</i>
   <i type="int" name="NOMEGA">     0</i>
   <i type="int" name="NOMEGAR">     0</i>
   <i type="int" name="NBANDSGW">    -1</i>
   <i type="int" name="NBANDSO">    -1</i>
   <i type="int" name="NBANDSV">    -1</i>
   <i type="int" name="NELM">     1</i>
   <i type="int" name="NELMHF">     1</i>
   <i type="int" name="DIM">     3</i>
   <i type="int" name="IESPILON">     4</i>
   <i type="int" name="ANTIRES">     0</i>
   <i name="OMEGAMAX">    -30.00000000</i>
   <i name="OMEGAMIN">    -30.00000000</i>
   <i name="OMEGATL">   -200.00000000</i>
   <i type="int" name="OMEGAGRID">     0</i>
   <i name="CSHIFT">     -0.10000000</i>
   <i type="logical" name="LSELFENERGY"> F  </i>
   <i type="logical" name="LSPECTRAL"> F  </i>
   <i type="logical" name="LSPECTRALGW"> F  </i>
   <i type="logical" name="LSINGLES"> F  </i>
   <i type="logical" name="LFERMIGW"> F  </i>
   <i type="logical" name="ODDONLYGW"> F  </i>
   <i type="logical" name="EVENONLYGW"> F  </i>
   <i type="int" name="NKREDLFX">     1</i>
   <i type="int" name="NKREDLFY">     1</i>
   <i type="int" name="NKREDLFZ">     1</i>
   <i type="int" name="MAXMEM">  2800</i>
   <i type="int" name="TELESCOPE">     0</i>
   <i type="int" name="NTAUPAR">    -1</i>
   <i type="int" name="NOMEGAPAR">    -1</i>
   <i name="DAMP_NEWTON">      0.80000001</i>
   <i name="LAMBDA">      1.00000000</i>
  </separator>
  <separator name="External order field" >
   <i name="OFIELD_KAPPA">      0.00000000</i>
   <v name="OFIELD_K">      0.00000000      0.00000000      0.00000000</v>
   <i name="OFIELD_Q6_NEAR">      0.00000000</i>
   <i name="OFIELD_Q6_FAR">      0.00000000</i>
   <i name="OFIELD_A">      0.00000000</i>
  </separator>
 </parameters>
 <atominfo>
  <atoms>       3 </atoms>
  <types>       2 </types>
  <array name="atoms" >
   <dimension dim="1">ion</dimension>
   <field type="string">element</field>
   <field type="int">atomtype</field>
   <set>
    <rc><c>H </c><c>   1</c></rc>
    <rc><c>H </c><c>   1</c></rc>
    <rc><c>Be</c><c>   2</c></rc>
   </set>
  </array>
  <array name="atomtypes" >
   <dimension dim="1">type</dimension>
   <field type="int">atomspertype</field>
   <field type="string">element</field>
   <field>mass</field>
   <field>valence</field>
   <field type="string">pseudopotential</field>
   <set>
    <rc><c>   2</c><c>H </c><c>      1.00000000</c><c>      1.00000000</c><c>  PAW_PBE H 15Jun2001                   </c></rc>
    <rc><c>   1</c><c>Be</c><c>      9.01300000</c><c>      2.00000000</c><c>  PAW_PBE Be 06Sep2000                  </c></rc>
   </set>
  </array>
 </atominfo>
 <structure name="initialpos" >
  <crystal>
   <varray name="basis" >
    <v>      20.00000000       0.00000000       0.00000000 </v>
    <v>       0.00000000      20.00000000       0.00000000 </v>
    <v>       0.00000000       0.00000000      20.00000000 </v>
   </varray>
   <i name="volume">   8000.00000000 </i>
   <varray name="rec_basis" >
    <v>       0.05000000       0.00000000       0.00000000 </v>
    <v>       0.00000000       0.05000000       0.00000000 </v>
    <v>       0.00000000       0.00000000       0.05000000 </v>
   </varray>
  </crystal>
  <varray name="positions" >
   <v>       0.50000000       0.50000000       0.56650000 </v>
   <v>       0.50000000       0.50000000       0.43350000 </v>
   <v>       0.50000000       0.50000000       0.50000000 </v>
  </varray>
 </structure>
 <calculation>
  <scstep>
   <time name="dav">    1.75    1.76</time>
   <time name="total">    6.94    7.56</time>
   <energy>
    <i name="alphaZ">      0.00680344 </i>
    <i name="ewald">     32.43271813 </i>
    <i name="hartreedc">    -58.72777618 </i>
    <i name="XCdc">      6.76103391 </i>
    <i name="pawpsdc">     19.52428620 </i>
    <i name="pawaedc">    -18.90838661 </i>
    <i name="eentropy">     -0.00000000 </i>
    <i name="bandstr">    -27.50931654 </i>
    <i name="atom">     52.45208377 </i>
    <i name="e_fr_energy">      6.03144613 </i>
    <i name="e_wo_entrp">      6.03144613 </i>
    <i name="e_0_energy">      6.03144613 </i>
   </energy>
  </scstep>
  <scstep>
   <time name="dav">    1.28    1.28</time>
   <time name="total">    1.28    1.28</time>
   <energy>
    <i name="e_fr_energy">     -8.10964736 </i>
    <i name="e_wo_entrp">     -8.10964736 </i>
    <i name="e_0_energy">     -8.10964736 </i>
   </energy>
  </scstep>
  <scstep>
   <time name="dav">    1.75    1.75</time>
   <time name="total">    1.75    1.75</time>
   <energy>
    <i name="e_fr_energy">    -10.09761639 </i>
    <i name="e_wo_entrp">    -10.09761639 </i>
    <i name="e_0_energy">    -10.09761639 </i>
   </energy>
  </scstep>
  <scstep>
   <time name="dav">    1.27    1.28</time>
   <time name="total">    1.27    1.28</time>
   <energy>
    <i name="e_fr_energy">    -10.10177947 </i>
    <i name="e_wo_entrp">    -10.10177947 </i>
    <i name="e_0_energy">    -10.10177947 </i>
   </energy>
  </scstep>
  <scstep>
   <time name="dav">    1.75    1.75</time>
   <time name="total">    2.30    2.31</time>
   <energy>
    <i name="e_fr_energy">    -10.10180697 </i>
    <i name="e_wo_entrp">    -10.10180697 </i>
    <i name="e_0_energy">    -10.10180697 </i>
   </energy>
  </scstep>
  <scstep>
   <time name="dav">    2.23    2.23</time>
   <time name="total">    7.65    7.67</time>
   <energy>
    <i name="e_fr_energy">     -9.09585396 </i>
    <i name="e_wo_entrp">     -9.09585396 </i>
    <i name="e_0_energy">     -9.09585396 </i>
   </energy>
  </scstep>
  <scstep>
   <time name="dav">    2.22    2.23</time>
   <time name="total">    7.66    7.67</time>
   <energy>
    <i name="e_fr_energy">     -8.67234063 </i>
    <i name="e_wo_entrp">     -8.67234063 </i>
    <i name="e_0_energy">     -8.67234063 </i>
   </energy>
  </scstep>
  <scstep>
   <time name="dav">    1.74    1.75</time>
   <time name="total">    7.21    7.23</time>
   <energy>
    <i name="e_fr_energy">     -8.67715789 </i>
    <i name="e_wo_entrp">     -8.67715789 </i>
    <i name="e_0_energy">     -8.67715789 </i>
   </energy>
  </scstep>
  <scstep>
   <time name="dav">    1.74    1.75</time>
   <time name="total">    7.23    7.25</time>
   <energy>
    <i name="e_fr_energy">     -8.67606008 </i>
    <i name="e_wo_entrp">     -8.67606008 </i>
    <i name="e_0_energy">     -8.67606008 </i>
   </energy>
  </scstep>
  <scstep>
   <time name="dav">    1.75    1.75</time>
   <time name="total">    7.27    7.29</time>
   <energy>
    <i name="e_fr_energy">     -8.68062751 </i>
    <i name="e_wo_entrp">     -8.68062751 </i>
    <i name="e_0_energy">     -8.68062751 </i>
   </energy>
  </scstep>
  <scstep>
   <time name="dav">    1.28    1.28</time>
   <time name="total">    6.83    6.84</time>
   <energy>
    <i name="e_fr_energy">     -8.68345456 </i>
    <i name="e_wo_entrp">     -8.68345456 </i>
    <i name="e_0_energy">     -8.68345456 </i>
   </energy>
  </scstep>
  <scstep>
   <time name="dav">    1.75    1.76</time>
   <time name="total">    7.31    7.32</time>
   <energy>
    <i name="e_fr_energy">     -8.68534631 </i>
    <i name="e_wo_entrp">     -8.68534631 </i>
    <i name="e_0_energy">     -8.68534631 </i>
   </energy>
  </scstep>
  <scstep>
   <time name="dav">    1.28    1.28</time>
   <time name="total">    6.87    6.89</time>
   <energy>
    <i name="e_fr_energy">     -8.68708038 </i>
    <i name="e_wo_entrp">     -8.68708038 </i>
    <i name="e_0_energy">     -8.68708038 </i>
   </energy>
  </scstep>
  <scstep>
   <time name="dav">    2.24    2.24</time>
   <time name="total">    7.85    7.86</time>
   <energy>
    <i name="e_fr_energy">     -8.68766557 </i>
    <i name="e_wo_entrp">     -8.68766557 </i>
    <i name="e_0_energy">     -8.68766557 </i>
   </energy>
  </scstep>
  <scstep>
   <time name="dav">    2.24    2.24</time>
   <time name="total">    7.81    7.83</time>
   <energy>
    <i name="e_fr_energy">     -8.68791021 </i>
    <i name="e_wo_entrp">     -8.68791021 </i>
    <i name="e_0_energy">     -8.68791021 </i>
   </energy>
  </scstep>
  <scstep>
   <time name="dav">    2.24    2.24</time>
   <time name="total">    7.17    7.62</time>
   <energy>
    <i name="alphaZ">      0.00680344 </i>
    <i name="ewald">     32.43271813 </i>
    <i name="hartreedc">    -70.67831824 </i>
    <i name="XCdc">      8.25713514 </i>
    <i name="pawpsdc">     68.49502329 </i>
    <i name="pawaedc">    -67.96304919 </i>
    <i name="eentropy">     -0.00000000 </i>
    <i name="bandstr">    -31.69035893 </i>
    <i name="atom">     52.45208377 </i>
    <i name="e_fr_energy">     -8.68796258 </i>
    <i name="e_wo_entrp">     -8.68796258 </i>
    <i name="e_0_energy">     -8.68796258 </i>
   </energy>
  </scstep>
  <structure>
   <crystal>
    <varray name="basis" >
     <v>      20.00000000       0.00000000       0.00000000 </v>
     <v>       0.00000000      20.00000000       0.00000000 </v>
     <v>       0.00000000       0.00000000      20.00000000 </v>
    </varray>
    <i name="volume">   8000.00000000 </i>
    <varray name="rec_basis" >
     <v>       0.05000000       0.00000000       0.00000000 </v>
     <v>       0.00000000       0.05000000       0.00000000 </v>
     <v>       0.00000000       0.00000000       0.05000000 </v>
    </varray>
   </crystal>
   <varray name="positions" >
    <v>       0.50000000       0.50000000       0.56650000 </v>
    <v>       0.50000000       0.50000000       0.43350000 </v>
    <v>       0.50000000       0.50000000       0.50000000 </v>
   </varray>
  </structure>
  <varray name="forces" >
   <v>      -0.00000000      -0.00000000       0.10208381 </v>
   <v>      -0.00000000       0.00000000      -0.10208381 </v>
   <v>       0.00000000       0.00000000       0.00000000 </v>
  </varray>
  <varray name="stress" >
   <v>      -0.00678311       0.00000000      -0.00000000 </v>
   <v>       0.00000000      -0.00678311       0.00000000 </v>
   <v>      -0.00000000       0.00000000       0.04997765 </v>
  </varray>
  <energy>
   <i name="e_fr_energy">     -8.68796258 </i>
   <i name="e_wo_entrp">     -8.68796258 </i>
   <i name="e_0_energy">     -8.68796258 </i>
  </energy>
  <time name="totalsc">  109.62  112.42</time>
  <eigenvalues>
   <array>
    <dimension dim="1">band</dimension>
    <dimension dim="2">kpoint</dimension>
    <dimension dim="3">spin</dimension>
    <field>eigene</field>
    <field>occ</field>
    <set>
     <set comment="spin 1">
      <set comment="kpoint 1">
       <r>   -8.3839    1.0000 </r>
       <r>   -7.4613    1.0000 </r>
       <r>   -1.5891    0.0000 </r>
       <r>   -1.5891    0.0000 </r>
       <r>   -0.1142    0.0000 </r>
       <r>    0.1957    0.0000 </r>
      </set>
     </set>
    </set>
   </array>
  </eigenvalues>
  <separator name="orbital magnetization" >
   <v name="MAGDIPOLOUT">      0.00000000      0.00000000      0.00000000</v>
  </separator>
  <dos>
   <i name="efermi">     -6.98579015 </i>
   <total>
    <array>
     <dimension dim="1">gridpoints</dimension>
     <dimension dim="2">spin</dimension>
     <field>energy</field>
     <field>total</field>
     <field>integrated</field>
     <set>
      <set comment="spin 1">
       <r>    -9.3839     0.0000     0.0000 </r>
       <r>    -9.3486     0.0000     0.0000 </r>
       <r>    -9.3133     0.0000     0.0000 </r>
       <r>    -9.2781     0.0000     0.0000 </r>
       <r>    -9.2428     0.0000     0.0000 </r>
       <r>    -9.2075     0.0000     0.0000 </r>
       <r>    -9.1723     0.0000     0.0000 </r>
       <r>    -9.1370     0.0000     0.0000 </r>
       <r>    -9.1017     0.0000     0.0000 </r>
       <r>    -9.0665     0.0000     0.0000 </r>
       <r>    -9.0312     0.0000     0.0000 </r>
       <r>    -8.9959     0.0000     0.0000 </r>
       <r>    -8.9607     0.0000     0.0000 </r>
       <r>    -8.9254     0.0000     0.0000 </r>
       <r>    -8.8901     0.0000     0.0000 </r>
       <r>    -8.8549     0.0000     0.0000 </r>
       <r>    -8.8196     0.0000     0.0000 </r>
       <r>    -8.7844     0.0000     0.0000 </r>
       <r>    -8.7491     0.0000     0.0000 </r>
       <r>    -8.7138     0.0001     0.0000 </r>
       <r>    -8.6786     0.0008     0.0000 </r>
       <r>    -8.6433     0.0060     0.0002 </r>
       <r>    -8.6080     0.0363     0.0015 </r>
       <r>    -8.5728     0.1710     0.0076 </r>
       <r>    -8.5375     0.6309     0.0298 </r>
       <r>    -8.5022     1.8242     0.0941 </r>
       <r>    -8.4670     4.1332     0.2399 </r>
       <r>    -8.4317     7.3390     0.4987 </r>
       <r>    -8.3964    10.2133     0.8589 </r>
       <r>    -8.3612    11.1400     1.2517 </r>
       <r>    -8.3259     9.5236     1.5876 </r>
       <r>    -8.2906     6.3813     1.8126 </r>
       <r>    -8.2554     3.3511     1.9308 </r>
       <r>    -8.2201     1.3791     1.9794 </r>
       <r>    -8.1848     0.4447     1.9951 </r>
       <r>    -8.1496     0.1124     1.9991 </r>
       <r>    -8.1143     0.0222     1.9999 </r>
       <r>    -8.0790     0.0034     2.0000 </r>
       <r>    -8.0438     0.0004     2.0000 </r>
       <r>    -8.0085     0.0000     2.0000 </r>
       <r>    -7.9733     0.0000     2.0000 </r>
       <r>    -7.9380     0.0000     2.0000 </r>
       <r>    -7.9027     0.0000     2.0000 </r>
       <r>    -7.8675     0.0000     2.0000 </r>
       <r>    -7.8322     0.0000     2.0000 </r>
       <r>    -7.7969     0.0001     2.0000 </r>
       <r>    -7.7617     0.0006     2.0000 </r>
       <r>    -7.7264     0.0044     2.0002 </r>
       <r>    -7.6911     0.0277     2.0012 </r>
       <r>    -7.6559     0.1356     2.0059 </r>
       <r>    -7.6206     0.5203     2.0243 </r>
       <r>    -7.5853     1.5644     2.0795 </r>
       <r>    -7.5501     3.6856     2.2094 </r>
       <r>    -7.5148     6.8048     2.4494 </r>
       <r>    -7.4795     9.8467     2.7966 </r>
       <r>    -7.4443    11.1676     3.1905 </r>
       <r>    -7.4090     9.9271     3.5406 </r>
       <r>    -7.3737     6.9164     3.7845 </r>
       <r>    -7.3385     3.7767     3.9177 </r>
       <r>    -7.3032     1.6161     3.9746 </r>
       <r>    -7.2679     0.5419     3.9938 </r>
       <r>    -7.2327     0.1424     3.9988 </r>
       <r>    -7.1974     0.0293     3.9998 </r>
       <r>    -7.1622     0.0047     4.0000 </r>
       <r>    -7.1269     0.0006     4.0000 </r>
       <r>    -7.0916     0.0001     4.0000 </r>
       <r>    -7.0564     0.0000     4.0000 </r>
       <r>    -7.0211     0.0000     4.0000 </r>
       <r>    -6.9858     0.0000     4.0000 </r>
       <r>    -6.9506     0.0000     4.0000 </r>
       <r>    -6.9153     0.0000     4.0000 </r>
       <r>    -6.8800     0.0000     4.0000 </r>
       <r>    -6.8448     0.0000     4.0000 </r>
       <r>    -6.8095     0.0000     4.0000 </r>
       <r>    -6.7742     0.0000     4.0000 </r>
       <r>    -6.7390     0.0000     4.0000 </r>
       <r>    -6.7037     0.0000     4.0000 </r>
       <r>    -6.6684     0.0000     4.0000 </r>
       <r>    -6.6332     0.0000     4.0000 </r>
       <r>    -6.5979     0.0000     4.0000 </r>
       <r>    -6.5626     0.0000     4.0000 </r>
       <r>    -6.5274     0.0000     4.0000 </r>
       <r>    -6.4921     0.0000     4.0000 </r>
       <r>    -6.4568     0.0000     4.0000 </r>
       <r>    -6.4216     0.0000     4.0000 </r>
       <r>    -6.3863     0.0000     4.0000 </r>
       <r>    -6.3510     0.0000     4.0000 </r>
       <r>    -6.3158     0.0000     4.0000 </r>
       <r>    -6.2805     0.0000     4.0000 </r>
       <r>    -6.2453     0.0000     4.0000 </r>
       <r>    -6.2100     0.0000     4.0000 </r>
       <r>    -6.1747     0.0000     4.0000 </r>
       <r>    -6.1395     0.0000     4.0000 </r>
       <r>    -6.1042     0.0000     4.0000 </r>
       <r>    -6.0689     0.0000     4.0000 </r>
       <r>    -6.0337     0.0000     4.0000 </r>
       <r>    -5.9984     0.0000     4.0000 </r>
       <r>    -5.9631     0.0000     4.0000 </r>
       <r>    -5.9279     0.0000     4.0000 </r>
       <r>    -5.8926     0.0000     4.0000 </r>
       <r>    -5.8573     0.0000     4.0000 </r>
       <r>    -5.8221     0.0000     4.0000 </r>
       <r>    -5.7868     0.0000     4.0000 </r>
       <r>    -5.7515     0.0000     4.0000 </r>
       <r>    -5.7163     0.0000     4.0000 </r>
       <r>    -5.6810     0.0000     4.0000 </r>
       <r>    -5.6457     0.0000     4.0000 </r>
       <r>    -5.6105     0.0000     4.0000 </r>
       <r>    -5.5752     0.0000     4.0000 </r>
       <r>    -5.5399     0.0000     4.0000 </r>
       <r>    -5.5047     0.0000     4.0000 </r>
       <r>    -5.4694     0.0000     4.0000 </r>
       <r>    -5.4342     0.0000     4.0000 </r>
       <r>    -5.3989     0.0000     4.0000 </r>
       <r>    -5.3636     0.0000     4.0000 </r>
       <r>    -5.3284     0.0000     4.0000 </r>
       <r>    -5.2931     0.0000     4.0000 </r>
       <r>    -5.2578     0.0000     4.0000 </r>
       <r>    -5.2226     0.0000     4.0000 </r>
       <r>    -5.1873     0.0000     4.0000 </r>
       <r>    -5.1520     0.0000     4.0000 </r>
       <r>    -5.1168     0.0000     4.0000 </r>
       <r>    -5.0815     0.0000     4.0000 </r>
       <r>    -5.0462     0.0000     4.0000 </r>
       <r>    -5.0110     0.0000     4.0000 </r>
       <r>    -4.9757     0.0000     4.0000 </r>
       <r>    -4.9404     0.0000     4.0000 </r>
       <r>    -4.9052     0.0000     4.0000 </r>
       <r>    -4.8699     0.0000     4.0000 </r>
       <r>    -4.8346     0.0000     4.0000 </r>
       <r>    -4.7994     0.0000     4.0000 </r>
       <r>    -4.7641     0.0000     4.0000 </r>
       <r>    -4.7288     0.0000     4.0000 </r>
       <r>    -4.6936     0.0000     4.0000 </r>
       <r>    -4.6583     0.0000     4.0000 </r>
       <r>    -4.6231     0.0000     4.0000 </r>
       <r>    -4.5878     0.0000     4.0000 </r>
       <r>    -4.5525     0.0000     4.0000 </r>
       <r>    -4.5173     0.0000     4.0000 </r>
       <r>    -4.4820     0.0000     4.0000 </r>
       <r>    -4.4467     0.0000     4.0000 </r>
       <r>    -4.4115     0.0000     4.0000 </r>
       <r>    -4.3762     0.0000     4.0000 </r>
       <r>    -4.3409     0.0000     4.0000 </r>
       <r>    -4.3057     0.0000     4.0000 </r>
       <r>    -4.2704     0.0000     4.0000 </r>
       <r>    -4.2351     0.0000     4.0000 </r>
       <r>    -4.1999     0.0000     4.0000 </r>
       <r>    -4.1646     0.0000     4.0000 </r>
       <r>    -4.1293     0.0000     4.0000 </r>
       <r>    -4.0941     0.0000     4.0000 </r>
       <r>    -4.0588     0.0000     4.0000 </r>
       <r>    -4.0235     0.0000     4.0000 </r>
       <r>    -3.9883     0.0000     4.0000 </r>
       <r>    -3.9530     0.0000     4.0000 </r>
       <r>    -3.9177     0.0000     4.0000 </r>
       <r>    -3.8825     0.0000     4.0000 </r>
       <r>    -3.8472     0.0000     4.0000 </r>
       <r>    -3.8120     0.0000     4.0000 </r>
       <r>    -3.7767     0.0000     4.0000 </r>
       <r>    -3.7414     0.0000     4.0000 </r>
       <r>    -3.7062     0.0000     4.0000 </r>
       <r>    -3.6709     0.0000     4.0000 </r>
       <r>    -3.6356     0.0000     4.0000 </r>
       <r>    -3.6004     0.0000     4.0000 </r>
       <r>    -3.5651     0.0000     4.0000 </r>
       <r>    -3.5298     0.0000     4.0000 </r>
       <r>    -3.4946     0.0000     4.0000 </r>
       <r>    -3.4593     0.0000     4.0000 </r>
       <r>    -3.4240     0.0000     4.0000 </r>
       <r>    -3.3888     0.0000     4.0000 </r>
       <r>    -3.3535     0.0000     4.0000 </r>
       <r>    -3.3182     0.0000     4.0000 </r>
       <r>    -3.2830     0.0000     4.0000 </r>
       <r>    -3.2477     0.0000     4.0000 </r>
       <r>    -3.2124     0.0000     4.0000 </r>
       <r>    -3.1772     0.0000     4.0000 </r>
       <r>    -3.1419     0.0000     4.0000 </r>
       <r>    -3.1066     0.0000     4.0000 </r>
       <r>    -3.0714     0.0000     4.0000 </r>
       <r>    -3.0361     0.0000     4.0000 </r>
       <r>    -3.0008     0.0000     4.0000 </r>
       <r>    -2.9656     0.0000     4.0000 </r>
       <r>    -2.9303     0.0000     4.0000 </r>
       <r>    -2.8951     0.0000     4.0000 </r>
       <r>    -2.8598     0.0000     4.0000 </r>
       <r>    -2.8245     0.0000     4.0000 </r>
       <r>    -2.7893     0.0000     4.0000 </r>
       <r>    -2.7540     0.0000     4.0000 </r>
       <r>    -2.7187     0.0000     4.0000 </r>
       <r>    -2.6835     0.0000     4.0000 </r>
       <r>    -2.6482     0.0000     4.0000 </r>
       <r>    -2.6129     0.0000     4.0000 </r>
       <r>    -2.5777     0.0000     4.0000 </r>
       <r>    -2.5424     0.0000     4.0000 </r>
       <r>    -2.5071     0.0000     4.0000 </r>
       <r>    -2.4719     0.0000     4.0000 </r>
       <r>    -2.4366     0.0000     4.0000 </r>
       <r>    -2.4013     0.0000     4.0000 </r>
       <r>    -2.3661     0.0000     4.0000 </r>
       <r>    -2.3308     0.0000     4.0000 </r>
       <r>    -2.2955     0.0000     4.0000 </r>
       <r>    -2.2603     0.0000     4.0000 </r>
       <r>    -2.2250     0.0000     4.0000 </r>
       <r>    -2.1897     0.0000     4.0000 </r>
       <r>    -2.1545     0.0000     4.0000 </r>
       <r>    -2.1192     0.0000     4.0000 </r>
       <r>    -2.0840     0.0000     4.0000 </r>
       <r>    -2.0487     0.0000     4.0000 </r>
       <r>    -2.0134     0.0000     4.0000 </r>
       <r>    -1.9782     0.0000     4.0000 </r>
       <r>    -1.9429     0.0000     4.0000 </r>
       <r>    -1.9076     0.0003     4.0000 </r>
       <r>    -1.8724     0.0031     4.0001 </r>
       <r>    -1.8371     0.0221     4.0009 </r>
       <r>    -1.8018     0.1230     4.0052 </r>
       <r>    -1.7666     0.5356     4.0241 </r>
       <r>    -1.7313     1.8265     4.0885 </r>
       <r>    -1.6960     4.8809     4.2607 </r>
       <r>    -1.6608    10.2208     4.6211 </r>
       <r>    -1.6255    16.7738     5.2126 </r>
       <r>    -1.5902    21.5753     5.9735 </r>
       <r>    -1.5550    21.7511     6.7406 </r>
       <r>    -1.5197    17.1870     7.3467 </r>
       <r>    -1.4844    10.6440     7.7220 </r>
       <r>    -1.4492     5.1661     7.9042 </r>
       <r>    -1.4139     1.9649     7.9735 </r>
       <r>    -1.3786     0.5856     7.9942 </r>
       <r>    -1.3434     0.1367     7.9990 </r>
       <r>    -1.3081     0.0250     7.9999 </r>
       <r>    -1.2729     0.0036     8.0000 </r>
       <r>    -1.2376     0.0004     8.0000 </r>
       <r>    -1.2023     0.0000     8.0000 </r>
       <r>    -1.1671     0.0000     8.0000 </r>
       <r>    -1.1318     0.0000     8.0000 </r>
       <r>    -1.0965     0.0000     8.0000 </r>
       <r>    -1.0613     0.0000     8.0000 </r>
       <r>    -1.0260     0.0000     8.0000 </r>
       <r>    -0.9907     0.0000     8.0000 </r>
       <r>    -0.9555     0.0000     8.0000 </r>
       <r>    -0.9202     0.0000     8.0000 </r>
       <r>    -0.8849     0.0000     8.0000 </r>
       <r>    -0.8497     0.0000     8.0000 </r>
       <r>    -0.8144     0.0000     8.0000 </r>
       <r>    -0.7791     0.0000     8.0000 </r>
       <r>    -0.7439     0.0000     8.0000 </r>
       <r>    -0.7086     0.0000     8.0000 </r>
       <r>    -0.6733     0.0000     8.0000 </r>
       <r>    -0.6381     0.0000     8.0000 </r>
       <r>    -0.6028     0.0000     8.0000 </r>
       <r>    -0.5675     0.0000     8.0000 </r>
       <r>    -0.5323     0.0000     8.0000 </r>
       <r>    -0.4970     0.0000     8.0000 </r>
       <r>    -0.4618     0.0000     8.0000 </r>
       <r>    -0.4265     0.0003     8.0000 </r>
       <r>    -0.3912     0.0022     8.0001 </r>
       <r>    -0.3560     0.0153     8.0006 </r>
       <r>    -0.3207     0.0812     8.0035 </r>
       <r>    -0.2854     0.3386     8.0154 </r>
       <r>    -0.2502     1.1061     8.0544 </r>
       <r>    -0.2149     2.8310     8.1543 </r>
       <r>    -0.1796     5.6781     8.3545 </r>
       <r>    -0.1444     8.9256     8.6693 </r>
       <r>    -0.1091    10.9968     9.0571 </r>
       <r>    -0.0738    10.6220     9.4317 </r>
       <r>    -0.0386     8.0588     9.7159 </r>
       <r>    -0.0033     4.8795     9.8879 </r>
       <r>     0.0320     2.6609     9.9818 </r>
       <r>     0.0672     2.1864    10.0589 </r>
       <r>     0.1025     3.5815    10.1852 </r>
       <r>     0.1378     6.4328    10.4120 </r>
       <r>     0.1730     9.5326    10.7482 </r>
       <r>     0.2083    11.1412    11.1411 </r>
       <r>     0.2436    10.2134    11.5013 </r>
       <r>     0.2788     7.3390    11.7601 </r>
       <r>     0.3141     4.1332    11.9059 </r>
       <r>     0.3494     1.8242    11.9702 </r>
       <r>     0.3846     0.6309    11.9924 </r>
       <r>     0.4199     0.1710    11.9985 </r>
       <r>     0.4551     0.0363    11.9998 </r>
       <r>     0.4904     0.0060    12.0000 </r>
       <r>     0.5257     0.0008    12.0000 </r>
       <r>     0.5609     0.0001    12.0000 </r>
       <r>     0.5962     0.0000    12.0000 </r>
       <r>     0.6315     0.0000    12.0000 </r>
       <r>     0.6667     0.0000    12.0000 </r>
       <r>     0.7020     0.0000    12.0000 </r>
       <r>     0.7373     0.0000    12.0000 </r>
       <r>     0.7725     0.0000    12.0000 </r>
       <r>     0.8078     0.0000    12.0000 </r>
       <r>     0.8431     0.0000    12.0000 </r>
       <r>     0.8783     0.0000    12.0000 </r>
       <r>     0.9136     0.0000    12.0000 </r>
       <r>     0.9489     0.0000    12.0000 </r>
       <r>     0.9841     0.0000    12.0000 </r>
       <r>     1.0194     0.0000    12.0000 </r>
       <r>     1.0547     0.0000    12.0000 </r>
       <r>     1.0899     0.0000    12.0000 </r>
       <r>     1.1252     0.0000    12.0000 </r>
       <r>     1.1605     0.0000    12.0000 </r>
       <r>     1.1957     0.0000    12.0000 </r>
      </set>
     </set>
    </array>
   </total>
  </dos>
 </calculation>
 <structure name="finalpos" >
  <crystal>
   <varray name="basis" >
    <v>      20.00000000       0.00000000       0.00000000 </v>
    <v>       0.00000000      20.00000000       0.00000000 </v>
    <v>       0.00000000       0.00000000      20.00000000 </v>
   </varray>
   <i name="volume">   8000.00000000 </i>
   <varray name="rec_basis" >
    <v>       0.05000000       0.00000000       0.00000000 </v>
    <v>       0.00000000       0.05000000       0.00000000 </v>
    <v>       0.00000000       0.00000000       0.05000000 </v>
   </varray>
  </crystal>
  <varray name="positions" >
   <v>       0.50000000       0.50000000       0.56650000 </v>
   <v>       0.50000000       0.50000000       0.43350000 </v>
   <v>       0.50000000       0.50000000       0.50000000 </v>
  </varray>
 </structure>
</modeling>
