<?xml version="1.0" encoding="ISO-8859-1"?>
<modeling>
 <generator>
  <i name="program" type="string">vasp </i>
  <i name="version" type="string">6.2.1  </i>
  <i name="subversion" type="string">16May21 (build Dec 20 2021 17:02:34) complex                          parallel </i>
  <i name="platform" type="string">LinuxGNU </i>
  <i name="date" type="string">2026 01 03 </i>
  <i name="time" type="string">19:23:38 </i>
 </generator>
 <incar>
  <i type="int" name="ISTART">     0</i>
  <i type="string" name="PREC">Normal</i>
  <i type="int" name="ICHARG">     2</i>
  <i type="int" name="IBRION">    -1</i>
  <i name="EDIFF">      0.00010000</i>
  <i type="int" name="NSW">     0</i>
  <i type="int" name="ISIF">     2</i>
  <i name="ENCUT">    200.00000000</i>
  <i type="string" name="LREAL">Auto</i>
  <i type="int" name="ISMEAR">     0</i>
  <i name="SIGMA">      0.10000000</i>
  <i type="logical" name="LWAVE"> F  </i>
  <i type="logical" name="LCHARG"> F  </i>
 </incar>
 <primitive_cell>
  <structure name="primitive_cell" >
   <crystal>
    <varray name="basis" >
     <v>      20.00000000       0.00000000       0.00000000 </v>
     <v>       0.00000000      20.00000000       0.00000000 </v>
     <v>       0.00000000       0.00000000      20.00000000 </v>
    </varray>
    <i name="volume">   8000.00000000 </i>
    <varray name="rec_basis" >
     <v>       0.05000000       0.00000000       0.00000000 </v>
     <v>       0.00000000       0.05000000       0.00000000 </v>
     <v>       0.00000000       0.00000000       0.05000000 </v>
    </varray>
   </crystal>
   <varray name="positions" >
    <v>       0.50000000       0.50000000       0.56650000 </v>
    <v>       0.50000000       0.50000000       0.43350000 </v>
    <v>       0.50000000       0.50000000       0.50000000 </v>
   </varray>
  </structure>
  <varray name="primitive_index" >
   <v type="int" >        1 </v>
   <v type="int" >        2 </v>
   <v type="int" >        3 </v>
  </varray>
 </primitive_cell>
 <kpoints>
  <generation param="Monkhorst-Pack">
   <v type="int" name="divisions">       1        1        1 </v>
   <v name="usershift">      0.00000000       0.00000000       0.00000000 </v>
   <v name="genvec1">      1.00000000       0.00000000       0.00000000 </v>
   <v name="genvec2">      0.00000000       1.00000000       0.00000000 </v>
   <v name="genvec3">      0.00000000       0.00000000       1.00000000 </v>
   <v name="shift">      0.00000000       0.00000000       0.00000000 </v>
  </generation>
  <varray name="kpointlist" >
   <v>       0.00000000       0.00000000       0.00000000 </v>
  </varray>
  <varray name="weights" >
   <v>       1.00000000 </v>
  </varray>
 </kpoints>
 <parameters>
  <separator name="general" >
   <i type="string" name="SYSTEM">unknown system</i>
   <i type="logical" name="LCOMPAT"> F  </i>
  </separator>
  <separator name="electronic" >
   <i type="string" name="PREC">normal</i>
   <i name="ENMAX">    200.00000000</i>
   <i name="ENAUG">    400.00000000</i>
   <i name="EDIFF">      0.00010000</i>
   <i type="int" name="IALGO">    38</i>
   <i type="int" name="IWAVPR">    10</i>
   <i type="int" name="NBANDS">     6</i>
   <i type="int" name="NBANDSLOW">    -1</i>
   <i type="int" name="NBANDSHIGH">    -1</i>
   <i name="NELECT">      4.00000000</i>
   <i type="int" name="TURBO">     0</i>
   <i type="int" name="IRESTART">     0</i>
   <i type="int" name="NREBOOT">     0</i>
   <i type="int" name="NMIN">     0</i>
   <i name="EREF">      0.00000000</i>
   <separator name="electronic smearing" >
    <i type="int" name="ISMEAR">     0</i>
    <i name="SIGMA">      0.10000000</i>
    <i name="KSPACING">      0.50000000</i>
    <i type="logical" name="KGAMMA"> T  </i>
    <i type="logical" name="KBLOWUP"> T  </i>
   </separator>
   <separator name="electronic projectors" >
    <i type="logical" name="LREAL"> T  </i>
    <v name="ROPT">     -0.00050000     -0.00050000</v>
    <i type="int" name="LMAXPAW">  -100</i>
    <i type="int" name="LMAXMIX">     2</i>
    <i type="logical" name="NLSPLINE"> F  </i>
   </separator>
   <separator name="electronic startup" >
    <i type="int" name="ISTART">     0</i>
    <i type="int" name="ICHARG">     2</i>
    <i type="int" name="INIWAV">     1</i>
   </separator>
   <separator name="electronic spin" >
    <i type="int" name="ISPIN">     1</i>
    <i type="logical" name="LNONCOLLINEAR"> F  </i>
    <v name="MAGMOM">      1.00000000      1.00000000      1.00000000</v>
    <i name="NUPDOWN">     -1.00000000</i>
    <i type="logical" name="LSORBIT"> F  </i>
    <v name="SAXIS">      0.00000000      0.00000000      1.00000000</v>
    <i type="logical" name="LSPIRAL"> F  </i>
    <v name="QSPIRAL">      0.00000000      0.00000000      0.00000000</v>
    <i type="logical" name="LZEROZ"> F  </i>
   </separator>
   <separator name="electronic exchange-correlation" >
    <i type="logical" name="LASPH"> F  </i>
    <i type="logical" name="LMETAGGA"> F  </i>
   </separator>
   <separator name="electronic convergence" >
    <i type="int" name="NELM">    60</i>
    <i type="int" name="NELMDL">    -5</i>
    <i type="int" name="NELMIN">     2</i>
    <i name="ENINI">    200.00000000</i>
    <separator name="electronic convergence detail" >
     <i type="logical" name="LDIAG"> T  </i>
     <i type="logical" name="LSUBROT"> F  </i>
     <i name="WEIMIN">      0.00000000</i>
     <i name="EBREAK">      0.00000417</i>
     <i name="DEPER">      0.30000000</i>
     <i type="int" name="NRMM">     4</i>
     <i name="TIME">      0.40000000</i>
    </separator>
   </separator>
   <separator name="electronic mixer" >
    <i name="AMIX">      0.40000000</i>
    <i name="BMIX">      1.00000000</i>
    <i name="AMIN">      0.10000000</i>
    <i name="AMIX_MAG">      1.60000000</i>
    <i name="BMIX_MAG">      1.00000000</i>
    <separator name="electronic mixer details" >
     <i type="int" name="IMIX">     4</i>
     <i type="logical" name="MIXFIRST"> F  </i>
     <i type="int" name="MAXMIX">   -45</i>
     <i name="WC">    100.00000000</i>
     <i type="int" name="INIMIX">     1</i>
     <i type="int" name="MIXPRE">     1</i>
     <i type="int" name="MREMOVE">     5</i>
    </separator>
   </separator>
   <separator name="electronic dipolcorrection" >
    <i type="logical" name="LDIPOL"> F  </i>
    <i type="logical" name="LMONO"> F  </i>
    <i type="int" name="IDIPOL">     0</i>
    <i name="EPSILON">      1.00000000</i>
    <v name="DIPOL">   -100.00000000   -100.00000000   -100.00000000</v>
    <i name="EFIELD">      0.00000000</i>
   </separator>
  </separator>
  <separator name="grids" >
   <i type="int" name="NGX">    70</i>
   <i type="int" name="NGY">    70</i>
   <i type="int" name="NGZ">    70</i>
   <i type="int" name="NGXF">   140</i>
   <i type="int" name="NGYF">   140</i>
   <i type="int" name="NGZF">   140</i>
   <i type="logical" name="ADDGRID"> F  </i>
  </separator>
  <separator name="ionic" >
   <i type="int" name="NSW">     0</i>
   <i type="int" name="IBRION">    -1</i>
   <i type="int" name="MDALGO">     0</i>
   <i type="int" name="ISIF">     2</i>
   <i name="PSTRESS">      0.00000000</i>
   <i name="EDIFFG">      0.00100000</i>
   <i type="int" name="NFREE">     0</i>
   <i name="POTIM">      0.50000000</i>
   <i name="SMASS">     -3.00000000</i>
   <i name="SCALEE">      1.00000000</i>
  </separator>
  <separator name="ionic md" >
   <i name="TEBEG">      0.00010000</i>
   <i name="TEEND">      0.00010000</i>
   <i type="int" name="NBLOCK">     1</i>
   <i type="int" name="KBLOCK">     1</i>
   <i type="int" name="NPACO">   256</i>
   <i name="APACO">     16.00000000</i>
  </separator>
  <separator name="symmetry" >
   <i type="int" name="ISYM">     2</i>
   <i name="SYMPREC">      0.00001000</i>
  </separator>
  <separator name="dos" >
   <i type="int" name="LORBIT">     0</i>
   <v name="RWIGS">     -1.00000000     -1.00000000</v>
   <i type="int" name="NEDOS">   301</i>
   <i name="EMIN">     10.00000000</i>
   <i name="EMAX">    -10.00000000</i>
   <i name="EFERMI">      0.00000000</i>
  </separator>
  <separator name="writing" >
   <i type="int" name="NWRITE">     2</i>
   <i type="logical" name="LWAVE"> F  </i>
   <i type="logical" name="LDOWNSAMPLE"> F  </i>
   <i type="logical" name="LCHARG"> F  </i>
   <i type="logical" name="LPARD"> F  </i>
   <i type="logical" name="LVTOT"> F  </i>
   <i type="logical" name="LVHAR"> F  </i>
   <i type="logical" name="LELF"> F  </i>
   <i type="logical" name="LOPTICS"> F  </i>
   <v name="STM">      0.00000000      0.00000000      0.00000000      0.00000000      0.00000000      0.00000000      0.00000000</v>
  </separator>
  <separator name="performance" >
   <i type="int" name="NPAR">     1</i>
   <i type="int" name="NSIM">     4</i>
   <i type="int" name="NBLK">    -1</i>
   <i type="logical" name="LPLANE"> T  </i>
   <i type="logical" name="LSCALAPACK"> T  </i>
   <i type="logical" name="LSCAAWARE"> F  </i>
   <i type="logical" name="LSCALU"> F  </i>
   <i type="logical" name="LASYNC"> F  </i>
   <i type="logical" name="LORBITALREAL"> F  </i>
  </separator>
  <separator name="miscellaneous" >
   <i type="int" name="IDIOT">     3</i>
   <i type="int" name="PHON_NSTRUCT">    -1</i>
   <i type="logical" name="LMUSIC"> F  </i>
   <v name="POMASS">      1.00000000      9.01300000</v>
   <v name="DARWINR">      0.00000000      0.00000000</v>
   <v name="DARWINV">      1.00000000      1.00000000</v>
   <i type="logical" name="LCORR"> T  </i>
  </separator>
  <i type="logical" name="GGA_COMPAT"> T  </i>
  <i type="logical" name="LBERRY"> F  </i>
  <i type="int" name="ICORELEVEL">     0</i>
  <i type="logical" name="LDAU"> F  </i>
  <i type="int" name="I_CONSTRAINED_M">     0</i>
  <separator name="electronic exchange-correlation" >
   <i type="string" name="GGA">--</i>
   <i type="int" name="VOSKOWN">     0</i>
   <i type="logical" name="LHFCALC"> F  </i>
   <i type="string" name="PRECFOCK"></i>
   <i type="logical" name="LSYMGRAD"> F  </i>
   <i type="logical" name="LHFONE"> F  </i>
   <i type="logical" name="LRHFCALC"> F  </i>
   <i type="logical" name="LTHOMAS"> F  </i>
   <i type="logical" name="LMODELHF"> F  </i>
   <i type="logical" name="LFOCKACE"> F  </i>
   <i name="ENCUT4O">     -1.00000000</i>
   <i type="int" name="EXXOEP">     0</i>
   <i type="int" name="FOURORBIT">     0</i>
   <i name="AEXX">      0.00000000</i>
   <i name="HFALPHA">      0.00000000</i>
   <i name="MCALPHA">      0.00000000</i>
   <i name="ALDAX">      1.00000000</i>
   <i name="AGGAX">      1.00000000</i>
   <i name="ALDAC">      1.00000000</i>
   <i name="AGGAC">      1.00000000</i>
   <i type="int" name="NKREDX">     1</i>
   <i type="int" name="NKREDY">     1</i>
   <i type="int" name="NKREDZ">     1</i>
   <i type="logical" name="SHIFTRED"> F  </i>
   <i type="logical" name="ODDONLY"> F  </i>
   <i type="logical" name="EVENONLY"> F  </i>
   <i type="int" name="LMAXFOCK">     0</i>
   <i type="int" name="NMAXFOCKAE">     0</i>
   <i type="logical" name="LFOCKAEDFT"> F  </i>
   <i name="HFSCREEN">      0.00000000</i>
   <i name="HFSCREENC">      0.00000000</i>
   <i type="int" name="NBANDSGWLOW">     0</i>
  </separator>
  <separator name="vdW DFT" >
   <i type="logical" name="LUSE_VDW"> F  </i>
   <i name="Zab_VDW">     -0.84910000</i>
   <i name="PARAM1">      0.12340000</i>
   <i name="PARAM2">      1.00000000</i>
   <i name="PARAM3">      0.00000000</i>
  </separator>
  <separator name="model GW" >
   <i type="int" name="MODEL_GW">     0</i>
   <i name="MODEL_EPS0">   1600.00000000</i>
   <i name="MODEL_ALPHA">      1.00000000</i>
  </separator>
  <separator name="linear response parameters" >
   <i type="logical" name="LEPSILON"> F  </i>
   <i type="logical" name="LRPA"> F  </i>
   <i type="logical" name="LNABLA"> F  </i>
   <i type="logical" name="LVEL"> F  </i>
   <i type="int" name="KINTER">     0</i>
   <i name="CSHIFT">      0.10000000</i>
   <i name="OMEGAMAX">     -1.00000000</i>
   <i name="DEG_THRESHOLD">      0.00200000</i>
   <i name="RTIME">     -0.10000000</i>
   <i name="WPLASMAI">      0.00000000</i>
   <v name="DFIELD">      0.00000000      0.00000000      0.00000000</v>
   <v name="WPLASMA">      0.00000000      0.00000000      0.00000000      0.00000000      0.00000000      0.00000000      0.00000000      0.00000000      0.00000000</v>
  </separator>
  <separator name="orbital magnetization" >
   <i type="logical" name="NUCIND"> F  </i>
   <v name="MAGPOS">      0.00000000      0.00000000      0.00000000</v>
   <i type="logical" name="LNICSALL"> T  </i>
   <i type="logical" name="ORBITALMAG"> F  </i>
   <i type="logical" name="LMAGBLOCH"> F  </i>
   <i type="logical" name="LCHIMAG"> F  </i>
   <i type="logical" name="LGAUGE"> T  </i>
   <i type="int" name="MAGATOM">     0</i>
   <v name="MAGDIPOL">      0.00000000      0.00000000      0.00000000</v>
   <v name="AVECCONST">      0.00000000      0.00000000      0.00000000</v>
  </separator>
  <separator name="response functions" >
   <i type="logical" name="LFINITE_TEMPERATURE"> F  </i>
   <i type="logical" name="LADDER"> F  </i>
   <i type="logical" name="LRPAFORCE"> F  </i>
   <i type="logical" name="LFXC"> F  </i>
   <i type="logical" name="LHARTREE"> T  </i>
   <i type="int" name="IBSE">     0</i>
   <v type="int" name="KPOINT">    -1     0     0     0</v>
   <i type="logical" name="LTCTC"> F  </i>
   <i type="logical" name="LTCTE"> F  </i>
   <i type="logical" name="LTETE"> F  </i>
   <i type="logical" name="LTRIPLET"> F  </i>
   <i type="logical" name="LFXCEPS"> F  </i>
   <i type="logical" name="LFXHEG"> F  </i>
   <i type="int" name="NATURALO">     2</i>
   <i type="logical" name="LHOLEGF"> F  </i>
   <i type="logical" name="L2ORDER"> F  </i>
   <i type="logical" name="LDMP1"> F  </i>
   <i type="logical" name="LMP2LT"> F  </i>
   <i type="logical" name="LSMP2LT"> F  </i>
   <i type="logical" name="LGWLF"> F  </i>
   <i name="ENCUTGW">     -2.00000000</i>
   <i name="ENCUTGWSOFT">     -2.00000000</i>
   <i name="ENCUTLF">     -1.00000000</i>
   <i type="logical" name="LESF_SPLINES"> F  </i>
   <i type="int" name="LMAXMP2">    -1</i>
   <i name="SCISSOR">      0.00000000</i>
   <i type="int" name="NOMEGA">     0</i>
   <i type="int" name="NOMEGAR">     0</i>
   <i type="int" name="NBANDSGW">    -1</i>
   <i type="int" name="NBANDSO">    -1</i>
   <i type="int" name="NBANDSV">    -1</i>
   <i type="int" name="NELM">     1</i>
   <i type="int" name="NELMHF">     1</i>
   <i type="int" name="DIM">     3</i>
   <i type="int" name="IESPILON">     4</i>
   <i type="int" name="ANTIRES">     0</i>
   <i name="OMEGAMAX">    -30.00000000</i>
   <i name="OMEGAMIN">    -30.00000000</i>
   <i name="OMEGATL">   -200.00000000</i>
   <i type="int" name="OMEGAGRID">     0</i>
   <i name="CSHIFT">     -0.10000000</i>
   <i type="logical" name="LSELFENERGY"> F  </i>
   <i type="logical" name="LSPECTRAL"> F  </i>
   <i type="logical" name="LSPECTRALGW"> F  </i>
   <i type="logical" name="LSINGLES"> F  </i>
   <i type="logical" name="LFERMIGW"> F  </i>
   <i type="logical" name="ODDONLYGW"> F  </i>
   <i type="logical" name="EVENONLYGW"> F  </i>
   <i type="int" name="NKREDLFX">     1</i>
   <i type="int" name="NKREDLFY">     1</i>
   <i type="int" name="NKREDLFZ">     1</i>
   <i type="int" name="MAXMEM">  2800</i>
   <i type="int" name="TELESCOPE">     0</i>
   <i type="int" name="NTAUPAR">    -1</i>
   <i type="int" name="NOMEGAPAR">    -1</i>
   <i name="DAMP_NEWTON">      0.80000001</i>
   <i name="LAMBDA">      1.00000000</i>
  </separator>
  <separator name="External order field" >
   <i name="OFIELD_KAPPA">      0.00000000</i>
   <v name="OFIELD_K">      0.00000000      0.00000000      0.00000000</v>
   <i name="OFIELD_Q6_NEAR">      0.00000000</i>
   <i name="OFIELD_Q6_FAR">      0.00000000</i>
   <i name="OFIELD_A">      0.00000000</i>
  </separator>
 </parameters>
 <atominfo>
  <atoms>       3 </atoms>
  <types>       2 </types>
  <array name="atoms" >
   <dimension dim="1">ion</dimension>
   <field type="string">element</field>
   <field type="int">atomtype</field>
   <set>
    <rc><c>H </c><c>   1</c></rc>
    <rc><c>H </c><c>   1</c></rc>
    <rc><c>Be</c><c>   2</c></rc>
   </set>
  </array>
  <array name="atomtypes" >
   <dimension dim="1">type</dimension>
   <field type="int">atomspertype</field>
   <field type="string">element</field>
   <field>mass</field>
   <field>valence</field>
   <field type="string">pseudopotential</field>
   <set>
    <rc><c>   2</c><c>H </c><c>      1.00000000</c><c>      1.00000000</c><c>  PAW H 06May1998                       </c></rc>
    <rc><c>   1</c><c>Be</c><c>      9.01300000</c><c>      2.00000000</c><c>  PAW Be 02Feb1998                      </c></rc>
   </set>
  </array>
 </atominfo>
 <structure name="initialpos" >
  <crystal>
   <varray name="basis" >
    <v>      20.00000000       0.00000000       0.00000000 </v>
    <v>       0.00000000      20.00000000       0.00000000 </v>
    <v>       0.00000000       0.00000000      20.00000000 </v>
   </varray>
   <i name="volume">   8000.00000000 </i>
   <varray name="rec_basis" >
    <v>       0.05000000       0.00000000       0.00000000 </v>
    <v>       0.00000000       0.05000000       0.00000000 </v>
    <v>       0.00000000       0.00000000       0.05000000 </v>
   </varray>
  </crystal>
  <varray name="positions" >
   <v>       0.50000000       0.50000000       0.56650000 </v>
   <v>       0.50000000       0.50000000       0.43350000 </v>
   <v>       0.50000000       0.50000000       0.50000000 </v>
  </varray>
 </structure>
 <calculation>
  <scstep>
   <time name="dav">    0.58    0.58</time>
   <time name="total">    1.03    1.36</time>
   <energy>
    <i name="alphaZ">      0.00697253 </i>
    <i name="ewald">     32.43271813 </i>
    <i name="hartreedc">    -58.03259353 </i>
    <i name="XCdc">      6.77802690 </i>
    <i name="pawpsdc">     19.92730329 </i>
    <i name="pawaedc">    -19.21401328 </i>
    <i name="eentropy">     -0.00000000 </i>
    <i name="bandstr">    -33.36204722 </i>
    <i name="atom">     51.28159139 </i>
    <i name="e_fr_energy">     -0.18204178 </i>
    <i name="e_wo_entrp">     -0.18204178 </i>
    <i name="e_0_energy">     -0.18204178 </i>
   </energy>
  </scstep>
  <scstep>
   <time name="dav">    0.34    0.34</time>
   <time name="total">    0.34    0.34</time>
   <energy>
    <i name="e_fr_energy">     -9.54512968 </i>
    <i name="e_wo_entrp">     -9.54512968 </i>
    <i name="e_0_energy">     -9.54512968 </i>
   </energy>
  </scstep>
  <scstep>
   <time name="dav">    0.45    0.46</time>
   <time name="total">    0.45    0.46</time>
   <energy>
    <i name="e_fr_energy">    -10.01077352 </i>
    <i name="e_wo_entrp">    -10.01077352 </i>
    <i name="e_0_energy">    -10.01077352 </i>
   </energy>
  </scstep>
  <scstep>
   <time name="dav">    0.57    0.57</time>
   <time name="total">    0.57    0.57</time>
   <energy>
    <i name="e_fr_energy">    -10.01155891 </i>
    <i name="e_wo_entrp">    -10.01155891 </i>
    <i name="e_0_energy">    -10.01155891 </i>
   </energy>
  </scstep>
  <scstep>
   <time name="dav">    0.47    0.47</time>
   <time name="total">    0.61    0.61</time>
   <energy>
    <i name="e_fr_energy">    -10.01155898 </i>
    <i name="e_wo_entrp">    -10.01155898 </i>
    <i name="e_0_energy">    -10.01155898 </i>
   </energy>
  </scstep>
  <scstep>
   <time name="dav">    0.72    0.72</time>
   <time name="total">    1.40    1.41</time>
   <energy>
    <i name="e_fr_energy">     -9.02468405 </i>
    <i name="e_wo_entrp">     -9.02468405 </i>
    <i name="e_0_energy">     -9.02468405 </i>
   </energy>
  </scstep>
  <scstep>
   <time name="dav">    0.92    0.93</time>
   <time name="total">    1.73    1.73</time>
   <energy>
    <i name="e_fr_energy">     -8.57856346 </i>
    <i name="e_wo_entrp">     -8.57856346 </i>
    <i name="e_0_energy">     -8.57856346 </i>
   </energy>
  </scstep>
  <scstep>
   <time name="dav">    0.91    0.91</time>
   <time name="total">    1.70    1.71</time>
   <energy>
    <i name="e_fr_energy">     -8.58497916 </i>
    <i name="e_wo_entrp">     -8.58497916 </i>
    <i name="e_0_energy">     -8.58497916 </i>
   </energy>
  </scstep>
  <scstep>
   <time name="dav">    0.68    0.68</time>
   <time name="total">    1.45    1.46</time>
   <energy>
    <i name="e_fr_energy">     -8.58444357 </i>
    <i name="e_wo_entrp">     -8.58444357 </i>
    <i name="e_0_energy">     -8.58444357 </i>
   </energy>
  </scstep>
  <scstep>
   <time name="dav">    0.69    0.70</time>
   <time name="total">    1.47    1.47</time>
   <energy>
    <i name="e_fr_energy">     -8.59058515 </i>
    <i name="e_wo_entrp">     -8.59058515 </i>
    <i name="e_0_energy">     -8.59058515 </i>
   </energy>
  </scstep>
  <scstep>
   <time name="dav">    0.65    0.66</time>
   <time name="total">    1.41    1.42</time>
   <energy>
    <i name="e_fr_energy">     -8.59216261 </i>
    <i name="e_wo_entrp">     -8.59216261 </i>
    <i name="e_0_energy">     -8.59216261 </i>
   </energy>
  </scstep>
  <scstep>
   <time name="dav">    0.47    0.48</time>
   <time name="total">    1.24    1.24</time>
   <energy>
    <i name="e_fr_energy">     -8.59533883 </i>
    <i name="e_wo_entrp">     -8.59533883 </i>
    <i name="e_0_energy">     -8.59533883 </i>
   </energy>
  </scstep>
  <scstep>
   <time name="dav">    0.65    0.65</time>
   <time name="total">    1.41    1.41</time>
   <energy>
    <i name="e_fr_energy">     -8.59650385 </i>
    <i name="e_wo_entrp">     -8.59650385 </i>
    <i name="e_0_energy">     -8.59650385 </i>
   </energy>
  </scstep>
  <scstep>
   <time name="dav">    0.47    0.47</time>
   <time name="total">    1.23    1.23</time>
   <energy>
    <i name="e_fr_energy">     -8.59712284 </i>
    <i name="e_wo_entrp">     -8.59712284 </i>
    <i name="e_0_energy">     -8.59712284 </i>
   </energy>
  </scstep>
  <scstep>
   <time name="dav">    0.83    0.83</time>
   <time name="total">    1.59    1.60</time>
   <energy>
    <i name="e_fr_energy">     -8.59732041 </i>
    <i name="e_wo_entrp">     -8.59732041 </i>
    <i name="e_0_energy">     -8.59732041 </i>
   </energy>
  </scstep>
  <scstep>
   <time name="dav">    0.66    0.66</time>
   <time name="total">    1.22    1.22</time>
   <energy>
    <i name="alphaZ">      0.00697253 </i>
    <i name="ewald">     32.43271813 </i>
    <i name="hartreedc">    -69.56274197 </i>
    <i name="XCdc">      8.26899941 </i>
    <i name="pawpsdc">     87.34256553 </i>
    <i name="pawaedc">    -86.70679774 </i>
    <i name="eentropy">     -0.00000000 </i>
    <i name="bandstr">    -31.66065240 </i>
    <i name="atom">     51.28159139 </i>
    <i name="e_fr_energy">     -8.59734512 </i>
    <i name="e_wo_entrp">     -8.59734512 </i>
    <i name="e_0_energy">     -8.59734512 </i>
   </energy>
  </scstep>
  <structure>
   <crystal>
    <varray name="basis" >
     <v>      20.00000000       0.00000000       0.00000000 </v>
     <v>       0.00000000      20.00000000       0.00000000 </v>
     <v>       0.00000000       0.00000000      20.00000000 </v>
    </varray>
    <i name="volume">   8000.00000000 </i>
    <varray name="rec_basis" >
     <v>       0.05000000       0.00000000       0.00000000 </v>
     <v>       0.00000000       0.05000000       0.00000000 </v>
     <v>       0.00000000       0.00000000       0.05000000 </v>
    </varray>
   </crystal>
   <varray name="positions" >
    <v>       0.50000000       0.50000000       0.56650000 </v>
    <v>       0.50000000       0.50000000       0.43350000 </v>
    <v>       0.50000000       0.50000000       0.50000000 </v>
   </varray>
  </structure>
  <varray name="forces" >
   <v>       0.00000000       0.00000000       0.38081287 </v>
   <v>       0.00000000      -0.00000000      -0.38081287 </v>
   <v>      -0.00000000       0.00000000      -0.00000000 </v>
  </varray>
  <varray name="stress" >
   <v>      -0.17802529       0.00000000      -0.00000000 </v>
   <v>       0.00000000      -0.17802529      -0.00000000 </v>
   <v>       0.00000000      -0.00000000      -0.02534203 </v>
  </varray>
  <energy>
   <i name="e_fr_energy">     -8.59734512 </i>
   <i name="e_wo_entrp">     -8.59734512 </i>
   <i name="e_0_energy">     -8.59734512 </i>
  </energy>
  <time name="totalsc">   21.81   23.20</time>
  <eigenvalues>
   <array>
    <dimension dim="1">band</dimension>
    <dimension dim="2">kpoint</dimension>
    <dimension dim="3">spin</dimension>
    <field>eigene</field>
    <field>occ</field>
    <set>
     <set comment="spin 1">
      <set comment="kpoint 1">
       <r>   -8.4049    1.0000 </r>
       <r>   -7.4254    1.0000 </r>
       <r>   -1.8371    0.0000 </r>
       <r>   -1.8371    0.0000 </r>
       <r>   -0.1087    0.0000 </r>
       <r>    0.2213    0.0000 </r>
      </set>
     </set>
    </set>
   </array>
  </eigenvalues>
  <separator name="orbital magnetization" >
   <v name="MAGDIPOLOUT">      0.00000000      0.00000000      0.00000000</v>
  </separator>
  <dos>
   <i name="efermi">     -6.96084542 </i>
   <total>
    <array>
     <dimension dim="1">gridpoints</dimension>
     <dimension dim="2">spin</dimension>
     <field>energy</field>
     <field>total</field>
     <field>integrated</field>
     <set>
      <set comment="spin 1">
       <r>    -9.4049     0.0000     0.0000 </r>
       <r>    -9.3695     0.0000     0.0000 </r>
       <r>    -9.3341     0.0000     0.0000 </r>
       <r>    -9.2987     0.0000     0.0000 </r>
       <r>    -9.2633     0.0000     0.0000 </r>
       <r>    -9.2278     0.0000     0.0000 </r>
       <r>    -9.1924     0.0000     0.0000 </r>
       <r>    -9.1570     0.0000     0.0000 </r>
       <r>    -9.1216     0.0000     0.0000 </r>
       <r>    -9.0862     0.0000     0.0000 </r>
       <r>    -9.0507     0.0000     0.0000 </r>
       <r>    -9.0153     0.0000     0.0000 </r>
       <r>    -8.9799     0.0000     0.0000 </r>
       <r>    -8.9445     0.0000     0.0000 </r>
       <r>    -8.9090     0.0000     0.0000 </r>
       <r>    -8.8736     0.0000     0.0000 </r>
       <r>    -8.8382     0.0000     0.0000 </r>
       <r>    -8.8028     0.0000     0.0000 </r>
       <r>    -8.7674     0.0000     0.0000 </r>
       <r>    -8.7319     0.0001     0.0000 </r>
       <r>    -8.6965     0.0009     0.0000 </r>
       <r>    -8.6611     0.0072     0.0003 </r>
       <r>    -8.6257     0.0425     0.0018 </r>
       <r>    -8.5903     0.1968     0.0088 </r>
       <r>    -8.5548     0.7125     0.0340 </r>
       <r>    -8.5194     2.0166     0.1054 </r>
       <r>    -8.4840     4.4628     0.2635 </r>
       <r>    -8.4486     7.7240     0.5371 </r>
       <r>    -8.4132    10.4552     0.9074 </r>
       <r>    -8.3777    11.0689     1.2995 </r>
       <r>    -8.3423     9.1656     1.6241 </r>
       <r>    -8.3069     5.9359     1.8344 </r>
       <r>    -8.2715     3.0065     1.9409 </r>
       <r>    -8.2361     1.1908     1.9831 </r>
       <r>    -8.2006     0.3688     1.9961 </r>
       <r>    -8.1652     0.0893     1.9993 </r>
       <r>    -8.1298     0.0169     1.9999 </r>
       <r>    -8.0944     0.0025     2.0000 </r>
       <r>    -8.0590     0.0003     2.0000 </r>
       <r>    -8.0235     0.0000     2.0000 </r>
       <r>    -7.9881     0.0000     2.0000 </r>
       <r>    -7.9527     0.0000     2.0000 </r>
       <r>    -7.9173     0.0000     2.0000 </r>
       <r>    -7.8819     0.0000     2.0000 </r>
       <r>    -7.8464     0.0000     2.0000 </r>
       <r>    -7.8110     0.0000     2.0000 </r>
       <r>    -7.7756     0.0000     2.0000 </r>
       <r>    -7.7402     0.0002     2.0000 </r>
       <r>    -7.7047     0.0020     2.0001 </r>
       <r>    -7.6693     0.0136     2.0006 </r>
       <r>    -7.6339     0.0742     2.0032 </r>
       <r>    -7.5985     0.3155     2.0144 </r>
       <r>    -7.5631     1.0492     2.0515 </r>
       <r>    -7.5276     2.7275     2.1481 </r>
       <r>    -7.4922     5.5451     2.3446 </r>
       <r>    -7.4568     8.8164     2.6568 </r>
       <r>    -7.4214    10.9634     3.0452 </r>
       <r>    -7.3860    10.6630     3.4229 </r>
       <r>    -7.3505     8.1114     3.7102 </r>
       <r>    -7.3151     4.8259     3.8811 </r>
       <r>    -7.2797     2.2454     3.9606 </r>
       <r>    -7.2443     0.8170     3.9896 </r>
       <r>    -7.2089     0.2324     3.9978 </r>
       <r>    -7.1734     0.0517     3.9996 </r>
       <r>    -7.1380     0.0090     4.0000 </r>
       <r>    -7.1026     0.0012     4.0000 </r>
       <r>    -7.0672     0.0001     4.0000 </r>
       <r>    -7.0318     0.0000     4.0000 </r>
       <r>    -6.9963     0.0000     4.0000 </r>
       <r>    -6.9609     0.0000     4.0000 </r>
       <r>    -6.9255     0.0000     4.0000 </r>
       <r>    -6.8901     0.0000     4.0000 </r>
       <r>    -6.8547     0.0000     4.0000 </r>
       <r>    -6.8192     0.0000     4.0000 </r>
       <r>    -6.7838     0.0000     4.0000 </r>
       <r>    -6.7484     0.0000     4.0000 </r>
       <r>    -6.7130     0.0000     4.0000 </r>
       <r>    -6.6775     0.0000     4.0000 </r>
       <r>    -6.6421     0.0000     4.0000 </r>
       <r>    -6.6067     0.0000     4.0000 </r>
       <r>    -6.5713     0.0000     4.0000 </r>
       <r>    -6.5359     0.0000     4.0000 </r>
       <r>    -6.5004     0.0000     4.0000 </r>
       <r>    -6.4650     0.0000     4.0000 </r>
       <r>    -6.4296     0.0000     4.0000 </r>
       <r>    -6.3942     0.0000     4.0000 </r>
       <r>    -6.3588     0.0000     4.0000 </r>
       <r>    -6.3233     0.0000     4.0000 </r>
       <r>    -6.2879     0.0000     4.0000 </r>
       <r>    -6.2525     0.0000     4.0000 </r>
       <r>    -6.2171     0.0000     4.0000 </r>
       <r>    -6.1817     0.0000     4.0000 </r>
       <r>    -6.1462     0.0000     4.0000 </r>
       <r>    -6.1108     0.0000     4.0000 </r>
       <r>    -6.0754     0.0000     4.0000 </r>
       <r>    -6.0400     0.0000     4.0000 </r>
       <r>    -6.0046     0.0000     4.0000 </r>
       <r>    -5.9691     0.0000     4.0000 </r>
       <r>    -5.9337     0.0000     4.0000 </r>
       <r>    -5.8983     0.0000     4.0000 </r>
       <r>    -5.8629     0.0000     4.0000 </r>
       <r>    -5.8275     0.0000     4.0000 </r>
       <r>    -5.7920     0.0000     4.0000 </r>
       <r>    -5.7566     0.0000     4.0000 </r>
       <r>    -5.7212     0.0000     4.0000 </r>
       <r>    -5.6858     0.0000     4.0000 </r>
       <r>    -5.6504     0.0000     4.0000 </r>
       <r>    -5.6149     0.0000     4.0000 </r>
       <r>    -5.5795     0.0000     4.0000 </r>
       <r>    -5.5441     0.0000     4.0000 </r>
       <r>    -5.5087     0.0000     4.0000 </r>
       <r>    -5.4732     0.0000     4.0000 </r>
       <r>    -5.4378     0.0000     4.0000 </r>
       <r>    -5.4024     0.0000     4.0000 </r>
       <r>    -5.3670     0.0000     4.0000 </r>
       <r>    -5.3316     0.0000     4.0000 </r>
       <r>    -5.2961     0.0000     4.0000 </r>
       <r>    -5.2607     0.0000     4.0000 </r>
       <r>    -5.2253     0.0000     4.0000 </r>
       <r>    -5.1899     0.0000     4.0000 </r>
       <r>    -5.1545     0.0000     4.0000 </r>
       <r>    -5.1190     0.0000     4.0000 </r>
       <r>    -5.0836     0.0000     4.0000 </r>
       <r>    -5.0482     0.0000     4.0000 </r>
       <r>    -5.0128     0.0000     4.0000 </r>
       <r>    -4.9774     0.0000     4.0000 </r>
       <r>    -4.9419     0.0000     4.0000 </r>
       <r>    -4.9065     0.0000     4.0000 </r>
       <r>    -4.8711     0.0000     4.0000 </r>
       <r>    -4.8357     0.0000     4.0000 </r>
       <r>    -4.8003     0.0000     4.0000 </r>
       <r>    -4.7648     0.0000     4.0000 </r>
       <r>    -4.7294     0.0000     4.0000 </r>
       <r>    -4.6940     0.0000     4.0000 </r>
       <r>    -4.6586     0.0000     4.0000 </r>
       <r>    -4.6232     0.0000     4.0000 </r>
       <r>    -4.5877     0.0000     4.0000 </r>
       <r>    -4.5523     0.0000     4.0000 </r>
       <r>    -4.5169     0.0000     4.0000 </r>
       <r>    -4.4815     0.0000     4.0000 </r>
       <r>    -4.4460     0.0000     4.0000 </r>
       <r>    -4.4106     0.0000     4.0000 </r>
       <r>    -4.3752     0.0000     4.0000 </r>
       <r>    -4.3398     0.0000     4.0000 </r>
       <r>    -4.3044     0.0000     4.0000 </r>
       <r>    -4.2689     0.0000     4.0000 </r>
       <r>    -4.2335     0.0000     4.0000 </r>
       <r>    -4.1981     0.0000     4.0000 </r>
       <r>    -4.1627     0.0000     4.0000 </r>
       <r>    -4.1273     0.0000     4.0000 </r>
       <r>    -4.0918     0.0000     4.0000 </r>
       <r>    -4.0564     0.0000     4.0000 </r>
       <r>    -4.0210     0.0000     4.0000 </r>
       <r>    -3.9856     0.0000     4.0000 </r>
       <r>    -3.9502     0.0000     4.0000 </r>
       <r>    -3.9147     0.0000     4.0000 </r>
       <r>    -3.8793     0.0000     4.0000 </r>
       <r>    -3.8439     0.0000     4.0000 </r>
       <r>    -3.8085     0.0000     4.0000 </r>
       <r>    -3.7731     0.0000     4.0000 </r>
       <r>    -3.7376     0.0000     4.0000 </r>
       <r>    -3.7022     0.0000     4.0000 </r>
       <r>    -3.6668     0.0000     4.0000 </r>
       <r>    -3.6314     0.0000     4.0000 </r>
       <r>    -3.5960     0.0000     4.0000 </r>
       <r>    -3.5605     0.0000     4.0000 </r>
       <r>    -3.5251     0.0000     4.0000 </r>
       <r>    -3.4897     0.0000     4.0000 </r>
       <r>    -3.4543     0.0000     4.0000 </r>
       <r>    -3.4189     0.0000     4.0000 </r>
       <r>    -3.3834     0.0000     4.0000 </r>
       <r>    -3.3480     0.0000     4.0000 </r>
       <r>    -3.3126     0.0000     4.0000 </r>
       <r>    -3.2772     0.0000     4.0000 </r>
       <r>    -3.2417     0.0000     4.0000 </r>
       <r>    -3.2063     0.0000     4.0000 </r>
       <r>    -3.1709     0.0000     4.0000 </r>
       <r>    -3.1355     0.0000     4.0000 </r>
       <r>    -3.1001     0.0000     4.0000 </r>
       <r>    -3.0646     0.0000     4.0000 </r>
       <r>    -3.0292     0.0000     4.0000 </r>
       <r>    -2.9938     0.0000     4.0000 </r>
       <r>    -2.9584     0.0000     4.0000 </r>
       <r>    -2.9230     0.0000     4.0000 </r>
       <r>    -2.8875     0.0000     4.0000 </r>
       <r>    -2.8521     0.0000     4.0000 </r>
       <r>    -2.8167     0.0000     4.0000 </r>
       <r>    -2.7813     0.0000     4.0000 </r>
       <r>    -2.7459     0.0000     4.0000 </r>
       <r>    -2.7104     0.0000     4.0000 </r>
       <r>    -2.6750     0.0000     4.0000 </r>
       <r>    -2.6396     0.0000     4.0000 </r>
       <r>    -2.6042     0.0000     4.0000 </r>
       <r>    -2.5688     0.0000     4.0000 </r>
       <r>    -2.5333     0.0000     4.0000 </r>
       <r>    -2.4979     0.0000     4.0000 </r>
       <r>    -2.4625     0.0000     4.0000 </r>
       <r>    -2.4271     0.0000     4.0000 </r>
       <r>    -2.3917     0.0000     4.0000 </r>
       <r>    -2.3562     0.0000     4.0000 </r>
       <r>    -2.3208     0.0000     4.0000 </r>
       <r>    -2.2854     0.0000     4.0000 </r>
       <r>    -2.2500     0.0000     4.0000 </r>
       <r>    -2.2145     0.0000     4.0000 </r>
       <r>    -2.1791     0.0001     4.0000 </r>
       <r>    -2.1437     0.0007     4.0000 </r>
       <r>    -2.1083     0.0063     4.0003 </r>
       <r>    -2.0729     0.0413     4.0017 </r>
       <r>    -2.0374     0.2122     4.0092 </r>
       <r>    -2.0020     0.8525     4.0394 </r>
       <r>    -1.9666     2.6771     4.1343 </r>
       <r>    -1.9312     6.5738     4.3671 </r>
       <r>    -1.8958    12.6235     4.8142 </r>
       <r>    -1.8603    18.9581     5.4857 </r>
       <r>    -1.8249    22.2681     6.2745 </r>
       <r>    -1.7895    20.4576     6.9991 </r>
       <r>    -1.7541    14.6996     7.5198 </r>
       <r>    -1.7187     8.2607     7.8124 </r>
       <r>    -1.6832     3.6304     7.9410 </r>
       <r>    -1.6478     1.2476     7.9852 </r>
       <r>    -1.6124     0.3352     7.9970 </r>
       <r>    -1.5770     0.0704     7.9995 </r>
       <r>    -1.5416     0.0116     7.9999 </r>
       <r>    -1.5061     0.0015     8.0000 </r>
       <r>    -1.4707     0.0001     8.0000 </r>
       <r>    -1.4353     0.0000     8.0000 </r>
       <r>    -1.3999     0.0000     8.0000 </r>
       <r>    -1.3645     0.0000     8.0000 </r>
       <r>    -1.3290     0.0000     8.0000 </r>
       <r>    -1.2936     0.0000     8.0000 </r>
       <r>    -1.2582     0.0000     8.0000 </r>
       <r>    -1.2228     0.0000     8.0000 </r>
       <r>    -1.1874     0.0000     8.0000 </r>
       <r>    -1.1519     0.0000     8.0000 </r>
       <r>    -1.1165     0.0000     8.0000 </r>
       <r>    -1.0811     0.0000     8.0000 </r>
       <r>    -1.0457     0.0000     8.0000 </r>
       <r>    -1.0102     0.0000     8.0000 </r>
       <r>    -0.9748     0.0000     8.0000 </r>
       <r>    -0.9394     0.0000     8.0000 </r>
       <r>    -0.9040     0.0000     8.0000 </r>
       <r>    -0.8686     0.0000     8.0000 </r>
       <r>    -0.8331     0.0000     8.0000 </r>
       <r>    -0.7977     0.0000     8.0000 </r>
       <r>    -0.7623     0.0000     8.0000 </r>
       <r>    -0.7269     0.0000     8.0000 </r>
       <r>    -0.6915     0.0000     8.0000 </r>
       <r>    -0.6560     0.0000     8.0000 </r>
       <r>    -0.6206     0.0000     8.0000 </r>
       <r>    -0.5852     0.0000     8.0000 </r>
       <r>    -0.5498     0.0000     8.0000 </r>
       <r>    -0.5144     0.0000     8.0000 </r>
       <r>    -0.4789     0.0000     8.0000 </r>
       <r>    -0.4435     0.0001     8.0000 </r>
       <r>    -0.4081     0.0006     8.0000 </r>
       <r>    -0.3727     0.0047     8.0002 </r>
       <r>    -0.3373     0.0294     8.0012 </r>
       <r>    -0.3018     0.1436     8.0063 </r>
       <r>    -0.2664     0.5487     8.0258 </r>
       <r>    -0.2310     1.6391     8.0838 </r>
       <r>    -0.1956     3.8285     8.2194 </r>
       <r>    -0.1602     6.9935     8.4671 </r>
       <r>    -0.1247     9.9911     8.8210 </r>
       <r>    -0.0893    11.1640     9.2165 </r>
       <r>    -0.0539     9.7589     9.5621 </r>
       <r>    -0.0185     6.6856     9.7989 </r>
       <r>     0.0170     3.6542     9.9284 </r>
       <r>     0.0524     1.8591     9.9942 </r>
       <r>     0.0878     1.6780    10.0537 </r>
       <r>     0.1232     3.1310    10.1646 </r>
       <r>     0.1586     5.9608    10.3757 </r>
       <r>     0.1941     9.1695    10.7005 </r>
       <r>     0.2295    11.0694    11.0926 </r>
       <r>     0.2649    10.4553    11.4629 </r>
       <r>     0.3003     7.7240    11.7365 </r>
       <r>     0.3357     4.4628    11.8946 </r>
       <r>     0.3712     2.0166    11.9660 </r>
       <r>     0.4066     0.7125    11.9912 </r>
       <r>     0.4420     0.1968    11.9982 </r>
       <r>     0.4774     0.0425    11.9997 </r>
       <r>     0.5128     0.0072    12.0000 </r>
       <r>     0.5483     0.0009    12.0000 </r>
       <r>     0.5837     0.0001    12.0000 </r>
       <r>     0.6191     0.0000    12.0000 </r>
       <r>     0.6545     0.0000    12.0000 </r>
       <r>     0.6899     0.0000    12.0000 </r>
       <r>     0.7254     0.0000    12.0000 </r>
       <r>     0.7608     0.0000    12.0000 </r>
       <r>     0.7962     0.0000    12.0000 </r>
       <r>     0.8316     0.0000    12.0000 </r>
       <r>     0.8670     0.0000    12.0000 </r>
       <r>     0.9025     0.0000    12.0000 </r>
       <r>     0.9379     0.0000    12.0000 </r>
       <r>     0.9733     0.0000    12.0000 </r>
       <r>     1.0087     0.0000    12.0000 </r>
       <r>     1.0441     0.0000    12.0000 </r>
       <r>     1.0796     0.0000    12.0000 </r>
       <r>     1.1150     0.0000    12.0000 </r>
       <r>     1.1504     0.0000    12.0000 </r>
       <r>     1.1858     0.0000    12.0000 </r>
       <r>     1.2213     0.0000    12.0000 </r>
      </set>
     </set>
    </array>
   </total>
  </dos>
 </calculation>
 <structure name="finalpos" >
  <crystal>
   <varray name="basis" >
    <v>      20.00000000       0.00000000       0.00000000 </v>
    <v>       0.00000000      20.00000000       0.00000000 </v>
    <v>       0.00000000       0.00000000      20.00000000 </v>
   </varray>
   <i name="volume">   8000.00000000 </i>
   <varray name="rec_basis" >
    <v>       0.05000000       0.00000000       0.00000000 </v>
    <v>       0.00000000       0.05000000       0.00000000 </v>
    <v>       0.00000000       0.00000000       0.05000000 </v>
   </varray>
  </crystal>
  <varray name="positions" >
   <v>       0.50000000       0.50000000       0.56650000 </v>
   <v>       0.50000000       0.50000000       0.43350000 </v>
   <v>       0.50000000       0.50000000       0.50000000 </v>
  </varray>
 </structure>
</modeling>
