<?xml version="1.0" encoding="ISO-8859-1"?>
<modeling>
 <generator>
  <i name="program" type="string">vasp </i>
  <i name="version" type="string">6.2.1  </i>
  <i name="subversion" type="string">16May21 (build Dec 20 2021 17:02:34) complex                          parallel </i>
  <i name="platform" type="string">LinuxGNU </i>
  <i name="date" type="string">2025 12 29 </i>
  <i name="time" type="string">16:26:41 </i>
 </generator>
 <incar>
  <i type="int" name="ISTART">     0</i>
  <i type="string" name="PREC">Normal</i>
  <i type="int" name="ICHARG">     2</i>
  <i type="int" name="IBRION">    -1</i>
  <i name="EDIFF">      0.00010000</i>
  <i type="int" name="NSW">     0</i>
  <i type="int" name="ISIF">     2</i>
  <i name="ENCUT">    200.00000000</i>
  <i type="string" name="LREAL">Auto</i>
  <i type="int" name="ISMEAR">     0</i>
  <i name="SIGMA">      0.10000000</i>
  <i type="logical" name="LWAVE"> F  </i>
  <i type="logical" name="LCHARG"> F  </i>
 </incar>
 <primitive_cell>
  <structure name="primitive_cell" >
   <crystal>
    <varray name="basis" >
     <v>      10.00000000       0.00000000       0.00000000 </v>
     <v>       0.00000000      10.00000000       0.00000000 </v>
     <v>       0.00000000       0.00000000      10.00000000 </v>
    </varray>
    <i name="volume">   1000.00000000 </i>
    <varray name="rec_basis" >
     <v>       0.10000000       0.00000000       0.00000000 </v>
     <v>       0.00000000       0.10000000       0.00000000 </v>
     <v>       0.00000000       0.00000000       0.10000000 </v>
    </varray>
   </crystal>
   <varray name="positions" >
    <v>       0.50000000       0.50000000       0.63300000 </v>
    <v>       0.50000000       0.50000000       0.36700000 </v>
    <v>       0.50000000       0.50000000       0.50000000 </v>
   </varray>
  </structure>
  <varray name="primitive_index" >
   <v type="int" >        1 </v>
   <v type="int" >        2 </v>
   <v type="int" >        3 </v>
  </varray>
 </primitive_cell>
 <kpoints>
  <generation param="Monkhorst-Pack">
   <v type="int" name="divisions">       1        1        1 </v>
   <v name="usershift">      0.00000000       0.00000000       0.00000000 </v>
   <v name="genvec1">      1.00000000       0.00000000       0.00000000 </v>
   <v name="genvec2">      0.00000000       1.00000000       0.00000000 </v>
   <v name="genvec3">      0.00000000       0.00000000       1.00000000 </v>
   <v name="shift">      0.00000000       0.00000000       0.00000000 </v>
  </generation>
  <varray name="kpointlist" >
   <v>       0.00000000       0.00000000       0.00000000 </v>
  </varray>
  <varray name="weights" >
   <v>       1.00000000 </v>
  </varray>
 </kpoints>
 <parameters>
  <separator name="general" >
   <i type="string" name="SYSTEM">unknown system</i>
   <i type="logical" name="LCOMPAT"> F  </i>
  </separator>
  <separator name="electronic" >
   <i type="string" name="PREC">normal</i>
   <i name="ENMAX">    200.00000000</i>
   <i name="ENAUG">    400.00000000</i>
   <i name="EDIFF">      0.00010000</i>
   <i type="int" name="IALGO">    38</i>
   <i type="int" name="IWAVPR">    10</i>
   <i type="int" name="NBANDS">     6</i>
   <i type="int" name="NBANDSLOW">    -1</i>
   <i type="int" name="NBANDSHIGH">    -1</i>
   <i name="NELECT">      4.00000000</i>
   <i type="int" name="TURBO">     0</i>
   <i type="int" name="IRESTART">     0</i>
   <i type="int" name="NREBOOT">     0</i>
   <i type="int" name="NMIN">     0</i>
   <i name="EREF">      0.00000000</i>
   <separator name="electronic smearing" >
    <i type="int" name="ISMEAR">     0</i>
    <i name="SIGMA">      0.10000000</i>
    <i name="KSPACING">      0.50000000</i>
    <i type="logical" name="KGAMMA"> T  </i>
    <i type="logical" name="KBLOWUP"> T  </i>
   </separator>
   <separator name="electronic projectors" >
    <i type="logical" name="LREAL"> T  </i>
    <v name="ROPT">     -0.00050000     -0.00050000</v>
    <i type="int" name="LMAXPAW">  -100</i>
    <i type="int" name="LMAXMIX">     2</i>
    <i type="logical" name="NLSPLINE"> F  </i>
   </separator>
   <separator name="electronic startup" >
    <i type="int" name="ISTART">     0</i>
    <i type="int" name="ICHARG">     2</i>
    <i type="int" name="INIWAV">     1</i>
   </separator>
   <separator name="electronic spin" >
    <i type="int" name="ISPIN">     1</i>
    <i type="logical" name="LNONCOLLINEAR"> F  </i>
    <v name="MAGMOM">      1.00000000      1.00000000      1.00000000</v>
    <i name="NUPDOWN">     -1.00000000</i>
    <i type="logical" name="LSORBIT"> F  </i>
    <v name="SAXIS">      0.00000000      0.00000000      1.00000000</v>
    <i type="logical" name="LSPIRAL"> F  </i>
    <v name="QSPIRAL">      0.00000000      0.00000000      0.00000000</v>
    <i type="logical" name="LZEROZ"> F  </i>
   </separator>
   <separator name="electronic exchange-correlation" >
    <i type="logical" name="LASPH"> F  </i>
    <i type="logical" name="LMETAGGA"> F  </i>
   </separator>
   <separator name="electronic convergence" >
    <i type="int" name="NELM">    60</i>
    <i type="int" name="NELMDL">    -5</i>
    <i type="int" name="NELMIN">     2</i>
    <i name="ENINI">    200.00000000</i>
    <separator name="electronic convergence detail" >
     <i type="logical" name="LDIAG"> T  </i>
     <i type="logical" name="LSUBROT"> F  </i>
     <i name="WEIMIN">      0.00000000</i>
     <i name="EBREAK">      0.00000417</i>
     <i name="DEPER">      0.30000000</i>
     <i type="int" name="NRMM">     4</i>
     <i name="TIME">      0.40000000</i>
    </separator>
   </separator>
   <separator name="electronic mixer" >
    <i name="AMIX">      0.40000000</i>
    <i name="BMIX">      1.00000000</i>
    <i name="AMIN">      0.10000000</i>
    <i name="AMIX_MAG">      1.60000000</i>
    <i name="BMIX_MAG">      1.00000000</i>
    <separator name="electronic mixer details" >
     <i type="int" name="IMIX">     4</i>
     <i type="logical" name="MIXFIRST"> F  </i>
     <i type="int" name="MAXMIX">   -45</i>
     <i name="WC">    100.00000000</i>
     <i type="int" name="INIMIX">     1</i>
     <i type="int" name="MIXPRE">     1</i>
     <i type="int" name="MREMOVE">     5</i>
    </separator>
   </separator>
   <separator name="electronic dipolcorrection" >
    <i type="logical" name="LDIPOL"> F  </i>
    <i type="logical" name="LMONO"> F  </i>
    <i type="int" name="IDIPOL">     0</i>
    <i name="EPSILON">      1.00000000</i>
    <v name="DIPOL">   -100.00000000   -100.00000000   -100.00000000</v>
    <i name="EFIELD">      0.00000000</i>
   </separator>
  </separator>
  <separator name="grids" >
   <i type="int" name="NGX">    36</i>
   <i type="int" name="NGY">    36</i>
   <i type="int" name="NGZ">    36</i>
   <i type="int" name="NGXF">    72</i>
   <i type="int" name="NGYF">    72</i>
   <i type="int" name="NGZF">    72</i>
   <i type="logical" name="ADDGRID"> F  </i>
  </separator>
  <separator name="ionic" >
   <i type="int" name="NSW">     0</i>
   <i type="int" name="IBRION">    -1</i>
   <i type="int" name="MDALGO">     0</i>
   <i type="int" name="ISIF">     2</i>
   <i name="PSTRESS">      0.00000000</i>
   <i name="EDIFFG">      0.00100000</i>
   <i type="int" name="NFREE">     0</i>
   <i name="POTIM">      0.50000000</i>
   <i name="SMASS">     -3.00000000</i>
   <i name="SCALEE">      1.00000000</i>
  </separator>
  <separator name="ionic md" >
   <i name="TEBEG">      0.00010000</i>
   <i name="TEEND">      0.00010000</i>
   <i type="int" name="NBLOCK">     1</i>
   <i type="int" name="KBLOCK">     1</i>
   <i type="int" name="NPACO">   256</i>
   <i name="APACO">     16.00000000</i>
  </separator>
  <separator name="symmetry" >
   <i type="int" name="ISYM">     2</i>
   <i name="SYMPREC">      0.00001000</i>
  </separator>
  <separator name="dos" >
   <i type="int" name="LORBIT">     0</i>
   <v name="RWIGS">     -1.00000000     -1.00000000</v>
   <i type="int" name="NEDOS">   301</i>
   <i name="EMIN">     10.00000000</i>
   <i name="EMAX">    -10.00000000</i>
   <i name="EFERMI">      0.00000000</i>
  </separator>
  <separator name="writing" >
   <i type="int" name="NWRITE">     2</i>
   <i type="logical" name="LWAVE"> F  </i>
   <i type="logical" name="LDOWNSAMPLE"> F  </i>
   <i type="logical" name="LCHARG"> F  </i>
   <i type="logical" name="LPARD"> F  </i>
   <i type="logical" name="LVTOT"> F  </i>
   <i type="logical" name="LVHAR"> F  </i>
   <i type="logical" name="LELF"> F  </i>
   <i type="logical" name="LOPTICS"> F  </i>
   <v name="STM">      0.00000000      0.00000000      0.00000000      0.00000000      0.00000000      0.00000000      0.00000000</v>
  </separator>
  <separator name="performance" >
   <i type="int" name="NPAR">     1</i>
   <i type="int" name="NSIM">     4</i>
   <i type="int" name="NBLK">    -1</i>
   <i type="logical" name="LPLANE"> T  </i>
   <i type="logical" name="LSCALAPACK"> T  </i>
   <i type="logical" name="LSCAAWARE"> F  </i>
   <i type="logical" name="LSCALU"> F  </i>
   <i type="logical" name="LASYNC"> F  </i>
   <i type="logical" name="LORBITALREAL"> F  </i>
  </separator>
  <separator name="miscellaneous" >
   <i type="int" name="IDIOT">     3</i>
   <i type="int" name="PHON_NSTRUCT">    -1</i>
   <i type="logical" name="LMUSIC"> F  </i>
   <v name="POMASS">      1.00000000      9.01300000</v>
   <v name="DARWINR">      0.00000000      0.00000000</v>
   <v name="DARWINV">      1.00000000      1.00000000</v>
   <i type="logical" name="LCORR"> T  </i>
  </separator>
  <i type="logical" name="GGA_COMPAT"> T  </i>
  <i type="logical" name="LBERRY"> F  </i>
  <i type="int" name="ICORELEVEL">     0</i>
  <i type="logical" name="LDAU"> F  </i>
  <i type="int" name="I_CONSTRAINED_M">     0</i>
  <separator name="electronic exchange-correlation" >
   <i type="string" name="GGA">--</i>
   <i type="int" name="VOSKOWN">     0</i>
   <i type="logical" name="LHFCALC"> F  </i>
   <i type="string" name="PRECFOCK"></i>
   <i type="logical" name="LSYMGRAD"> F  </i>
   <i type="logical" name="LHFONE"> F  </i>
   <i type="logical" name="LRHFCALC"> F  </i>
   <i type="logical" name="LTHOMAS"> F  </i>
   <i type="logical" name="LMODELHF"> F  </i>
   <i type="logical" name="LFOCKACE"> F  </i>
   <i name="ENCUT4O">     -1.00000000</i>
   <i type="int" name="EXXOEP">     0</i>
   <i type="int" name="FOURORBIT">     0</i>
   <i name="AEXX">      0.00000000</i>
   <i name="HFALPHA">      0.00000000</i>
   <i name="MCALPHA">      0.00000000</i>
   <i name="ALDAX">      1.00000000</i>
   <i name="AGGAX">      1.00000000</i>
   <i name="ALDAC">      1.00000000</i>
   <i name="AGGAC">      1.00000000</i>
   <i type="int" name="NKREDX">     1</i>
   <i type="int" name="NKREDY">     1</i>
   <i type="int" name="NKREDZ">     1</i>
   <i type="logical" name="SHIFTRED"> F  </i>
   <i type="logical" name="ODDONLY"> F  </i>
   <i type="logical" name="EVENONLY"> F  </i>
   <i type="int" name="LMAXFOCK">     0</i>
   <i type="int" name="NMAXFOCKAE">     0</i>
   <i type="logical" name="LFOCKAEDFT"> F  </i>
   <i name="HFSCREEN">      0.00000000</i>
   <i name="HFSCREENC">      0.00000000</i>
   <i type="int" name="NBANDSGWLOW">     0</i>
  </separator>
  <separator name="vdW DFT" >
   <i type="logical" name="LUSE_VDW"> F  </i>
   <i name="Zab_VDW">     -0.84910000</i>
   <i name="PARAM1">      0.12340000</i>
   <i name="PARAM2">      1.00000000</i>
   <i name="PARAM3">      0.00000000</i>
  </separator>
  <separator name="model GW" >
   <i type="int" name="MODEL_GW">     0</i>
   <i name="MODEL_EPS0">    200.00000000</i>
   <i name="MODEL_ALPHA">      1.00000000</i>
  </separator>
  <separator name="linear response parameters" >
   <i type="logical" name="LEPSILON"> F  </i>
   <i type="logical" name="LRPA"> F  </i>
   <i type="logical" name="LNABLA"> F  </i>
   <i type="logical" name="LVEL"> F  </i>
   <i type="int" name="KINTER">     0</i>
   <i name="CSHIFT">      0.10000000</i>
   <i name="OMEGAMAX">     -1.00000000</i>
   <i name="DEG_THRESHOLD">      0.00200000</i>
   <i name="RTIME">     -0.10000000</i>
   <i name="WPLASMAI">      0.00000000</i>
   <v name="DFIELD">      0.00000000      0.00000000      0.00000000</v>
   <v name="WPLASMA">      0.00000000      0.00000000      0.00000000      0.00000000      0.00000000      0.00000000      0.00000000      0.00000000      0.00000000</v>
  </separator>
  <separator name="orbital magnetization" >
                                                                                                                                                                                                                                                                                                                                                                                                                                                                                                                                                                                                                                                                                                                                                                                                                                                                                                                                                                                                                                                                                                                                                                                                                                                                                                                                                                                                                                                                                                                                                                                                                                                                                                                                                                                                                                                                                                                                                                                                                                                                                                                                                                                                                                                                                                                                                                                                                                                                                                                                                                                                                                                                                                                                                                                                                                                                                                                                                                                                                                                                                                                                                                                                                                                                                                                                                                                                                                                                                                                                                                                                                                                                                                                                                                                                                                                                                                                                                                                                                                                                                                                                                                                                                                                                                                                                                                                                                                                                                                                                                                                                                                                                                                                                                                                                                                                                                                                                                                                                                                                                                                                                                                                                                                                                                                                                                                                                                                                                                                                                                                                                                                                                                                                                                                                                                                                                                                                                                                                                                                                                                                                                                                                                                                                                                                                                                                                                                                                                                                                                                                                                                                                                                                                                                                                                                                                                                                                                                                                                                                                                                                                                                                                                                                                                                                                                                                                                                                                                                                                                                                                                                                                                                                                                                                                                                                                                                                                                                                                                                                                                                                                                                                                                                                                                                                                                                                                                                                                                                                                                                                                                                                                       <i name="e_0_energy">     -8.58303074 </i>
   </energy>
  </scstep>
  <scstep>
   <time name="dav">    0.10    0.10</time>
   <time name="total">    0.22    0.23</time>
   <energy>
    <i name="e_fr_energy">     -8.58598211 </i>
    <i name="e_wo_entrp">     -8.58598211 </i>
    <i name="e_0_energy">     -8.58598211 </i>
   </energy>
  </scstep>
  <scstep>
   <time name="dav">    0.10    0.11</time>
   <time name="total">    0.23    0.24</time>
   <energy>
    <i name="e_fr_energy">     -8.58829625 </i>
    <i name="e_wo_entrp">     -8.58829625 </i>
    <i name="e_0_energy">     -8.58829625 </i>
   </energy>
  </scstep>
  <scstep>
   <time name="dav">    0.07    0.07</time>
   <time name="total">    0.18    0.28</time>
   <energy>
    <i name="e_fr_energy">     -8.58962755 </i>
    <i name="e_wo_entrp">     -8.58962755 </i>
    <i name="e_0_energy">     -8.58962755 </i>
   </energy>
  </scstep>
  <scstep>
   <time name="dav">    0.07    0.07</time>
   <time name="total">    0.19    0.19</time>
   <energy>
    <i name="e_fr_energy">     -8.58992215 </i>
    <i name="e_wo_entrp">     -8.58992215 </i>
    <i name="e_0_energy">     -8.58992215 </i>
   </energy>
  </scstep>
  <scstep>
   <time name="dav">    0.07    0.07</time>
   <time name="total">    0.19    0.19</time>
   <energy>
    <i name="e_fr_energy">     -8.59008311 </i>
    <i name="e_wo_entrp">     -8.59008311 </i>
    <i name="e_0_energy">     -8.59008311 </i>
   </energy>
  </scstep>
  <scstep>
   <time name="dav">    0.07    0.07</time>
   <time name="total">    0.17    0.77</time>
   <energy>
    <i name="alphaZ">      0.05578025 </i>
    <i name="ewald">     16.49112684 </i>
    <i name="hartreedc">    -54.18577656 </i>
    <i name="XCdc">      8.26833327 </i>
    <i name="pawpsdc">     87.47274629 </i>
    <i name="pawaedc">    -86.83670499 </i>
    <i name="eentropy">     -0.00000000 </i>
    <i name="bandstr">    -31.13719629 </i>
    <i name="atom">     51.28159139 </i>
    <i name="e_fr_energy">     -8.59009980 </i>
    <i name="e_wo_entrp">     -8.59009980 </i>
    <i name="e_0_energy">     -8.59009980 </i>
   </energy>
  </scstep>
  <structure>
   <crystal>
    <varray name="basis" >
     <v>      10.00000000       0.00000000       0.00000000 </v>
     <v>       0.00000000      10.00000000       0.00000000 </v>
     <v>       0.00000000       0.00000000      10.00000000 </v>
    </varray>
    <i name="volume">   1000.00000000 </i>
    <varray name="rec_basis" >
     <v>       0.10000000       0.00000000       0.00000000 </v>
     <v>       0.00000000       0.10000000       0.00000000 </v>
     <v>       0.00000000       0.00000000       0.10000000 </v>
    </varray>
   </crystal>
   <varray name="positions" >
    <v>       0.50000000       0.50000000       0.63300000 </v>
    <v>       0.50000000       0.50000000       0.36700000 </v>
    <v>       0.50000000       0.50000000       0.50000000 </v>
   </varray>
  </structure>
  <varray name="forces" >
   <v>       0.00000000      -0.00000000       0.37722360 </v>
   <v>      -0.00000000      -0.00000000      -0.37722360 </v>
   <v>      -0.00000000       0.00000000       0.00000000 </v>
  </varray>
  <varray name="stress" >
   <v>      -1.43535306       0.00000000      -0.00000000 </v>
   <v>       0.00000000      -1.43535306      -0.00000000 </v>
   <v>       0.00000000      -0.00000000      -0.22411509 </v>
  </varray>
  <energy>
   <i name="e_fr_energy">     -8.59009980 </i>
   <i name="e_wo_entrp">     -8.59009980 </i>
   <i name="e_0_energy">     -8.59009980 </i>
  </energy>
  <time name="totalsc">    3.21    5.91</time>
  <eigenvalues>
   <array>
    <dimension dim="1">band</dimension>
    <dimension dim="2">kpoint</dimension>
    <dimension dim="3">spin</dimension>
    <field>eigene</field>
    <field>occ</field>
    <set>
     <set comment="spin 1">
      <set comment="kpoint 1">
       <r>   -8.2767    1.0000 </r>
       <r>   -7.2919    1.0000 </r>
       <r>   -1.7027    0.0000 </r>
       <r>   -1.7027    0.0000 </r>
       <r>   -0.1635    0.0000 </r>
       <r>    0.6734    0.0000 </r>
      </set>
     </set>
    </set>
   </array>
  </eigenvalues>
  <separator name="orbital magnetization" >
   <v name="MAGDIPOLOUT">      0.00000000      0.00000000      0.00000000</v>
  </separator>
  <dos>
   <i name="efermi">     -6.83108570 </i>
   <total>
    <array>
     <dimension dim="1">gridpoints</dimension>
     <dimension dim="2">spin</dimension>
     <field>energy</field>
     <field>total</field>
     <field>integrated</field>
     <set>
      <set comment="spin 1">
       <r>    -9.2767     0.0000     0.0000 </r>
       <r>    -9.2402     0.0000     0.0000 </r>
       <r>    -9.2037     0.0000     0.0000 </r>
       <r>    -9.1672     0.0000     0.0000 </r>
       <r>    -9.1307     0.0000     0.0000 </r>
       <r>    -9.0942     0.0000     0.0000 </r>
       <r>    -9.0577     0.0000     0.0000 </r>
       <r>    -9.0212     0.0000     0.0000 </r>
       <r>    -8.9847     0.0000     0.0000 </r>
       <r>    -8.9482     0.0000     0.0000 </r>
       <r>    -8.9117     0.0000     0.0000 </r>
       <r>    -8.8752     0.0000     0.0000 </r>
       <r>    -8.8387     0.0000     0.0000 </r>
       <r>    -8.8022     0.0000     0.0000 </r>
       <r>    -8.7657     0.0000     0.0000 </r>
       <r>    -8.7292     0.0000     0.0000 </r>
       <r>    -8.6927     0.0000     0.0000 </r>
       <r>    -8.6562     0.0000     0.0000 </r>
       <r>    -8.6197     0.0000     0.0000 </r>
       <r>    -8.5832     0.0004     0.0000 </r>
       <r>    -8.5467     0.0033     0.0001 </r>
       <r>    -8.5102     0.0226     0.0010 </r>
       <r>    -8.4737     0.1200     0.0053 </r>
       <r>    -8.4372     0.4901     0.0232 </r>
       <r>    -8.4007     1.5422     0.0795 </r>
       <r>    -8.3642     3.7386     0.2160 </r>
       <r>    -8.3277     6.9826     0.4708 </r>
       <r>    -8.2912    10.0491     0.8376 </r>
       <r>    -8.2547    11.1443     1.2444 </r>
       <r>    -8.2182     9.5237     1.5920 </r>
       <r>    -8.1817     6.2715     1.8209 </r>
       <r>    -8.1452     3.1822     1.9371 </r>
       <r>    -8.1087     1.2440     1.9825 </r>
       <r>    -8.0722     0.3746     1.9962 </r>
       <r>    -8.0357     0.0869     1.9993 </r>
       <r>    -7.9992     0.0155     1.9999 </r>
       <r>    -7.9627     0.0021     2.0000 </r>
       <r>    -7.9262     0.0002     2.0000 </r>
       <r>    -7.8897     0.0000     2.0000 </r>
       <r>    -7.8532     0.0000     2.0000 </r>
       <r>    -7.8167     0.0000     2.0000 </r>
       <r>    -7.7802     0.0000     2.0000 </r>
       <r>    -7.7437     0.0000     2.0000 </r>
       <r>    -7.7072     0.0000     2.0000 </r>
       <r>    -7.6707     0.0000     2.0000 </r>
       <r>    -7.6342     0.0000     2.0000 </r>
       <r>    -7.5977     0.0004     2.0000 </r>
       <r>    -7.5612     0.0034     2.0001 </r>
       <r>    -7.5247     0.0235     2.0010 </r>
       <r>    -7.4882     0.1238     2.0055 </r>
       <r>    -7.4517     0.5029     2.0239 </r>
       <r>    -7.4152     1.5743     2.0813 </r>
       <r>    -7.3787     3.7961     2.2199 </r>
       <r>    -7.3422     7.0527     2.4773 </r>
       <r>    -7.3057    10.0964     2.8458 </r>
       <r>    -7.2692    11.1377     3.2524 </r>
       <r>    -7.2327     9.4677     3.5979 </r>
       <r>    -7.1962     6.2017     3.8243 </r>
       <r>    -7.1597     3.1301     3.9386 </r>
       <r>    -7.1232     1.2172     3.9830 </r>
       <r>    -7.0867     0.3646     3.9963 </r>
       <r>    -7.0502     0.0841     3.9994 </r>
       <r>    -7.0137     0.0149     3.9999 </r>
       <r>    -6.9772     0.0020     4.0000 </r>
       <r>    -6.9407     0.0002     4.0000 </r>
       <r>    -6.9042     0.0000     4.0000 </r>
       <r>    -6.8677     0.0000     4.0000 </r>
       <r>    -6.8312     0.0000     4.0000 </r>
       <r>    -6.7947     0.0000     4.0000 </r>
       <r>    -6.7582     0.0000     4.0000 </r>
       <r>    -6.7217     0.0000     4.0000 </r>
       <r>    -6.6852     0.0000     4.0000 </r>
       <r>    -6.6487     0.0000     4.0000 </r>
       <r>    -6.6122     0.0000     4.0000 </r>
       <r>    -6.5757     0.0000     4.0000 </r>
       <r>    -6.5392     0.0000     4.0000 </r>
       <r>    -6.5027     0.0000     4.0000 </r>
       <r>    -6.4662     0.0000     4.0000 </r>
       <r>    -6.4297     0.0000     4.0000 </r>
       <r>    -6.3932     0.0000     4.0000 </r>
       <r>    -6.3567     0.0000     4.0000 </r>
       <r>    -6.3202     0.0000     4.0000 </r>
       <r>    -6.2837     0.0000     4.0000 </r>
       <r>    -6.2472     0.0000     4.0000 </r>
       <r>    -6.2107     0.0000     4.0000 </r>
       <r>    -6.1741     0.0000     4.0000 </r>
       <r>    -6.1376     0.0000     4.0000 </r>
       <r>    -6.1011     0.0000     4.0000 </r>
       <r>    -6.0646     0.0000     4.0000 </r>
       <r>    -6.0281     0.0000     4.0000 </r>
       <r>    -5.9916     0.0000     4.0000 </r>
       <r>    -5.9551     0.0000     4.0000 </r>
       <r>    -5.9186     0.0000     4.0000 </r>
       <r>    -5.8821     0.0000     4.0000 </r>
       <r>    -5.8456     0.0000     4.0000 </r>
       <r>    -5.8091     0.0000     4.0000 </r>
       <r>    -5.7726     0.0000     4.0000 </r>
       <r>    -5.7361     0.0000     4.0000 </r>
       <r>    -5.6996     0.0000     4.0000 </r>
       <r>    -5.6631     0.0000     4.0000 </r>
       <r>    -5.6266     0.0000     4.0000 </r>
       <r>    -5.5901     0.0000     4.0000 </r>
       <r>    -5.5536     0.0000     4.0000 </r>
       <r>    -5.5171     0.0000     4.0000 </r>
       <r>    -5.4806     0.0000     4.0000 </r>
       <r>    -5.4441     0.0000     4.0000 </r>
       <r>    -5.4076     0.0000     4.0000 </r>
       <r>    -5.3711     0.0000     4.0000 </r>
       <r>    -5.3346     0.0000     4.0000 </r>
       <r>    -5.2981     0.0000     4.0000 </r>
       <r>    -5.2616     0.0000     4.0000 </r>
       <r>    -5.2251     0.0000     4.0000 </r>
       <r>    -5.1886     0.0000     4.0000 </r>
       <r>    -5.1521     0.0000     4.0000 </r>
       <r>    -5.1156     0.0000     4.0000 </r>
       <r>    -5.0791     0.0000     4.0000 </r>
       <r>    -5.0426     0.0000     4.0000 </r>
       <r>    -5.0061     0.0000     4.0000 </r>
       <r>    -4.9696     0.0000     4.0000 </r>
       <r>    -4.9331     0.0000     4.0000 </r>
       <r>    -4.8966     0.0000     4.0000 </r>
       <r>    -4.8601     0.0000     4.0000 </r>
       <r>    -4.8236     0.0000     4.0000 </r>
       <r>    -4.7871     0.0000     4.0000 </r>
       <r>    -4.7506     0.0000     4.0000 </r>
       <r>    -4.7141     0.0000     4.0000 </r>
       <r>    -4.6776     0.0000     4.0000 </r>
       <r>    -4.6411     0.0000     4.0000 </r>
       <r>    -4.6046     0.0000     4.0000 </r>
       <r>    -4.5681     0.0000     4.0000 </r>
       <r>    -4.5316     0.0000     4.0000 </r>
       <r>    -4.4951     0.0000     4.0000 </r>
       <r>    -4.4586     0.0000     4.0000 </r>
       <r>    -4.4221     0.0000     4.0000 </r>
       <r>    -4.3856     0.0000     4.0000 </r>
       <r>    -4.3491     0.0000     4.0000 </r>
       <r>    -4.3126     0.0000     4.0000 </r>
       <r>    -4.2761     0.0000     4.0000 </r>
       <r>    -4.2396     0.0000     4.0000 </r>
       <r>    -4.2031     0.0000     4.0000 </r>
       <r>    -4.1666     0.0000     4.0000 </r>
       <r>    -4.1301     0.0000     4.0000 </r>
       <r>    -4.0936     0.0000     4.0000 </r>
       <r>    -4.0571     0.0000     4.0000 </r>
       <r>    -4.0206     0.0000     4.0000 </r>
       <r>    -3.9841     0.0000     4.0000 </r>
       <r>    -3.9476     0.0000     4.0000 </r>
       <r>    -3.9111     0.0000     4.0000 </r>
       <r>    -3.8746     0.0000     4.0000 </r>
       <r>    -3.8381     0.0000     4.0000 </r>
       <r>    -3.8016     0.0000     4.0000 </r>
       <r>    -3.7651     0.0000     4.0000 </r>
       <r>    -3.7286     0.0000     4.0000 </r>
       <r>    -3.6921     0.0000     4.0000 </r>
       <r>    -3.6556     0.0000     4.0000 </r>
       <r>    -3.6191     0.0000     4.0000 </r>
       <r>    -3.5826     0.0000     4.0000 </r>
       <r>    -3.5461     0.0000     4.0000 </r>
       <r>    -3.5096     0.0000     4.0000 </r>
       <r>    -3.4731     0.0000     4.0000 </r>
       <r>    -3.4366     0.0000     4.0000 </r>
       <r>    -3.4001     0.0000     4.0000 </r>
       <r>    -3.3636     0.0000     4.0000 </r>
       <r>    -3.3271     0.0000     4.0000 </r>
       <r>    -3.2906     0.0000     4.0000 </r>
       <r>    -3.2541     0.0000     4.0000 </r>
       <r>    -3.2176     0.0000     4.0000 </r>
       <r>    -3.1811     0.0000     4.0000 </r>
       <r>    -3.1446     0.0000     4.0000 </r>
       <r>    -3.1081     0.0000     4.0000 </r>
       <r>    -3.0716     0.0000     4.0000 </r>
       <r>    -3.0351     0.0000     4.0000 </r>
       <r>    -2.9986     0.0000     4.0000 </r>
       <r>    -2.9621     0.0000     4.0000 </r>
       <r>    -2.9256     0.0000     4.0000 </r>
       <r>    -2.8891     0.0000     4.0000 </r>
       <r>    -2.8526     0.0000     4.0000 </r>
       <r>    -2.8161     0.0000     4.0000 </r>
       <r>    -2.7796     0.0000     4.0000 </r>
       <r>    -2.7431     0.0000     4.0000 </r>
       <r>    -2.7066     0.0000     4.0000 </r>
       <r>    -2.6701     0.0000     4.0000 </r>
       <r>    -2.6336     0.0000     4.0000 </r>
       <r>    -2.5971     0.0000     4.0000 </r>
       <r>    -2.5606     0.0000     4.0000 </r>
       <r>    -2.5241     0.0000     4.0000 </r>
       <r>    -2.4876     0.0000     4.0000 </r>
       <r>    -2.4511     0.0000     4.0000 </r>
       <r>    -2.4146     0.0000     4.0000 </r>
       <r>    -2.3781     0.0000     4.0000 </r>
       <r>    -2.3416     0.0000     4.0000 </r>
       <r>    -2.3051     0.0000     4.0000 </r>
       <r>    -2.2686     0.0000     4.0000 </r>
       <r>    -2.2321     0.0000     4.0000 </r>
       <r>    -2.1956     0.0000     4.0000 </r>
       <r>    -2.1591     0.0000     4.0000 </r>
       <r>    -2.1226     0.0000     4.0000 </r>
       <r>    -2.0861     0.0000     4.0000 </r>
       <r>    -2.0496     0.0000     4.0000 </r>
       <r>    -2.0131     0.0006     4.0000 </r>
       <r>    -1.9766     0.0052     4.0002 </r>
       <r>    -1.9401     0.0372     4.0016 </r>
       <r>    -1.9036     0.2030     4.0090 </r>
       <r>    -1.8671     0.8530     4.0401 </r>
       <r>    -1.8306     2.7608     4.1409 </r>
       <r>    -1.7941     6.8831     4.3921 </r>
       <r>    -1.7576    13.2217     4.8747 </r>
       <r>    -1.7211    19.5694     5.5890 </r>
       <r>    -1.6846    22.3195     6.4037 </r>
       <r>    -1.6481    19.6162     7.1197 </r>
       <r>    -1.6116    13.2851     7.6046 </r>
       <r>    -1.5751     6.9327     7.8576 </r>
       <r>    -1.5386     2.7873     7.9594 </r>
       <r>    -1.5021     0.8633     7.9909 </r>
       <r>    -1.4656     0.2059     7.9984 </r>
       <r>    -1.4291     0.0378     7.9998 </r>
       <r>    -1.3926     0.0054     8.0000 </r>
       <r>    -1.3561     0.0006     8.0000 </r>
       <r>    -1.3196     0.0000     8.0000 </r>
       <r>    -1.2831     0.0000     8.0000 </r>
       <r>    -1.2466     0.0000     8.0000 </r>
       <r>    -1.2101     0.0000     8.0000 </r>
       <r>    -1.1736     0.0000     8.0000 </r>
       <r>    -1.1371     0.0000     8.0000 </r>
       <r>    -1.1006     0.0000     8.0000 </r>
       <r>    -1.0641     0.0000     8.0000 </r>
       <r>    -1.0276     0.0000     8.0000 </r>
       <r>    -0.9911     0.0000     8.0000 </r>
       <r>    -0.9546     0.0000     8.0000 </r>
       <r>    -0.9181     0.0000     8.0000 </r>
       <r>    -0.8816     0.0000     8.0000 </r>
       <r>    -0.8451     0.0000     8.0000 </r>
       <r>    -0.8086     0.0000     8.0000 </r>
       <r>    -0.7721     0.0000     8.0000 </r>
       <r>    -0.7356     0.0000     8.0000 </r>
       <r>    -0.6991     0.0000     8.0000 </r>
       <r>    -0.6626     0.0000     8.0000 </r>
       <r>    -0.6261     0.0000     8.0000 </r>
       <r>    -0.5896     0.0000     8.0000 </r>
       <r>    -0.5531     0.0000     8.0000 </r>
       <r>    -0.5166     0.0000     8.0000 </r>
       <r>    -0.4801     0.0002     8.0000 </r>
       <r>    -0.4436     0.0018     8.0001 </r>
       <r>    -0.4071     0.0136     8.0006 </r>
       <r>    -0.3706     0.0776     8.0034 </r>
       <r>    -0.3341     0.3407     8.0158 </r>
       <r>    -0.2976     1.1524     8.0579 </r>
       <r>    -0.2611     3.0028     8.1675 </r>
       <r>    -0.2246     6.0285     8.3875 </r>
       <r>    -0.1881     9.3254     8.7279 </r>
       <r>    -0.1516    11.1159     9.1337 </r>
       <r>    -0.1151    10.2104     9.5063 </r>
       <r>    -0.0786     7.2270     9.7701 </r>
       <r>    -0.0421     3.9416     9.9140 </r>
       <r>    -0.0056     1.6563     9.9745 </r>
       <r>     0.0309     0.5362     9.9940 </r>
       <r>     0.0674     0.1337     9.9989 </r>
       <r>     0.1039     0.0257     9.9998 </r>
       <r>     0.1404     0.0038    10.0000 </r>
       <r>     0.1769     0.0004    10.0000 </r>
       <r>     0.2134     0.0000    10.0000 </r>
       <r>     0.2499     0.0000    10.0000 </r>
       <r>     0.2864     0.0000    10.0000 </r>
       <r>     0.3229     0.0000    10.0000 </r>
       <r>     0.3594     0.0002    10.0000 </r>
       <r>     0.3959     0.0021    10.0001 </r>
       <r>     0.4324     0.0155    10.0007 </r>
       <r>     0.4689     0.0869    10.0038 </r>
       <r>     0.5054     0.3746    10.0175 </r>
       <r>     0.5419     1.2440    10.0629 </r>
       <r>     0.5784     3.1822    10.1791 </r>
       <r>     0.6149     6.2715    10.4080 </r>
       <r>     0.6514     9.5237    10.7556 </r>
       <r>     0.6879    11.1443    11.1624 </r>
       <r>     0.7244    10.0491    11.5292 </r>
       <r>     0.7609     6.9826    11.7840 </r>
       <r>     0.7974     3.7386    11.9205 </r>
       <r>     0.8339     1.5422    11.9768 </r>
       <r>     0.8704     0.4901    11.9947 </r>
       <r>     0.9069     0.1200    11.9990 </r>
       <r>     0.9434     0.0226    11.9999 </r>
       <r>     0.9799     0.0033    12.0000 </r>
       <r>     1.0164     0.0004    12.0000 </r>
       <r>     1.0529     0.0000    12.0000 </r>
       <r>     1.0894     0.0000    12.0000 </r>
       <r>     1.1259     0.0000    12.0000 </r>
       <r>     1.1624     0.0000    12.0000 </r>
       <r>     1.1989     0.0000    12.0000 </r>
       <r>     1.2354     0.0000    12.0000 </r>
       <r>     1.2719     0.0000    12.0000 </r>
       <r>     1.3084     0.0000    12.0000 </r>
       <r>     1.3449     0.0000    12.0000 </r>
       <r>     1.3814     0.0000    12.0000 </r>
       <r>     1.4179     0.0000    12.0000 </r>
       <r>     1.4544     0.0000    12.0000 </r>
       <r>     1.4909     0.0000    12.0000 </r>
       <r>     1.5274     0.0000    12.0000 </r>
       <r>     1.5639     0.0000    12.0000 </r>
       <r>     1.6004     0.0000    12.0000 </r>
       <r>     1.6369     0.0000    12.0000 </r>
       <r>     1.6734     0.0000    12.0000 </r>
      </set>
     </set>
    </array>
   </total>
  </dos>
 </calculation>
 <structure name="finalpos" >
  <crystal>
   <varray name="basis" >
    <v>      10.00000000       0.00000000       0.00000000 </v>
    <v>       0.00000000      10.00000000       0.00000000 </v>
    <v>       0.00000000       0.00000000      10.00000000 </v>
   </varray>
   <i name="volume">   1000.00000000 </i>
   <varray name="rec_basis" >
    <v>       0.10000000       0.00000000       0.00000000 </v>
    <v>       0.00000000       0.10000000       0.00000000 </v>
    <v>       0.00000000       0.00000000       0.10000000 </v>
   </varray>
  </crystal>
  <varray name="positions" >
   <v>       0.50000000       0.50000000       0.63300000 </v>
   <v>       0.50000000       0.50000000       0.36700000 </v>
   <v>       0.50000000       0.50000000       0.50000000 </v>
  </varray>
 </structure>
</modeling>
