unknown system                          
           1
    20.000000    0.000000    0.000000
     0.000000   20.000000    0.000000
     0.000000    0.000000   20.000000
   H    Be
     2     1
Direct configuration=     1
   0.50000000  0.50000000  0.56650000
   0.50000000  0.50000000  0.43350000
   0.50000000  0.50000000  0.50000000
