unknown system                          
   1.0000000000000000     
     1.603240    1.603240    0.000000
    -0.000000    3.206481    0.000000
     0.000000    0.000000    2.266682
   Be   H 
     1     1
Direct
  0.000000  0.000000  0.000000
  0.000000  0.500000  0.500000

   20   24   20
 0.76335      1.2018      2.2706      3.3972      4.0507      4.0297      3.4898      2.7584      2.1201      1.7194    
  1.5876      1.7194      2.1201      2.7584      3.4898      4.0297      4.0507      3.3972      2.2706      1.2018    
  1.3662      2.3141      3.4081      4.1063      4.1553      3.6607      2.9311      2.2617      1.8168      1.6404    
  1.7283      2.0845      2.6901      3.4263      4.0362      4.1952      3.7057      2.6948      1.6314      1.0852    
  2.7853      3.7223      4.3506      4.3965      3.9184      3.1883      2.4928      2.0066      1.7860      1.8298    
  2.1402      2.7075      3.4400      4.1199      4.4470      4.1994      3.4242      2.4927      1.9197      2.0411    
  4.1758      4.6657      4.6646      4.1917      3.4716      2.7659      2.2493      1.9885      1.9884      2.2493    
  2.7667      3.4724      4.1913      4.6630      4.6645      4.1766      3.4606      2.9405      2.9393      3.4584    
  4.8811      4.8334      4.3833      3.7028      3.0161      2.4895      2.1983      2.1565      2.3648      2.8179    
  3.4659      4.1716      4.7218      4.9127      4.6841      4.1999      3.7818      3.7110      4.0360      4.5376    
  4.7983      4.4094      3.8102      3.1812      2.6730      2.3666      2.2884      2.4430      2.8219      3.3845    
  4.0240      4.5717      4.8565      4.8037      4.5068      4.1959      4.0988      4.2864      4.6222      4.8580    
  4.2363      3.7573      3.2218      2.7607      2.4579      2.3528      2.4566      2.7592      3.2214      3.7583    
  4.2379      4.5246      4.5492      4.3644      4.1323      4.0300      4.1337      4.3661      4.5497      4.5237    
  3.5541      3.1354      2.7423      2.4597      2.3390      2.3994      2.6315      2.9952      3.4174      3.7951    
  4.0236      4.0482      3.9043      3.7102      3.6045      3.6603      3.8386      4.0139      4.0531      3.8909    
  2.9523      2.6367      2.3860      2.2598      2.2859      2.4580      2.7375      3.0567      3.3308      3.4801    
  3.4654      3.3165      3.1275      3.0112      3.0364      3.1877      3.3752      3.4868      3.4474      3.2507    
  2.4832      2.2687      2.1451      2.1461      2.2705      2.4840      2.7247      2.9174      2.9971      2.9369    
  2.7663      2.5660      2.4331      2.4331      2.5655      2.7654      2.9363      2.9977      2.9189      2.7257    
  2.1495      2.0309      2.0140      2.1032      2.2698      2.4580      2.5996      2.6360      2.5448      2.3550    
  2.1402      1.9889      1.9650      2.0785      2.2813      2.4895      2.6205      2.6272      2.5145      2.3319    
  1.9522      1.9209      1.9846      2.1212      2.2810      2.3996      2.4202      2.3194      2.1225      1.8975    
  1.7288      1.6814      1.7739      1.9704      2.1957      2.3669      2.4275      2.3688      2.2279      2.0683    
  1.8877      1.9331      2.0537      2.2048      2.3242      2.3531      2.2626      2.0713      1.8423      1.6584    
  1.5883      1.6584      1.8423      2.0713      2.2626      2.3531      2.3242      2.2048      2.0537      1.9331    
  1.9522      2.0683      2.2279      2.3688      2.4275      2.3669      2.1957      1.9704      1.7739      1.6814    
  1.7288      1.8975      2.1225      2.3194      2.4202      2.3996      2.2810      2.1212      1.9846      1.9209    
  2.1495      2.3319      2.5145      2.6272      2.6205      2.4895      2.2813      2.0785      1.9650      1.9889    
  2.1402      2.3550      2.5448      2.6360      2.5996      2.4580      2.2698      2.1032      2.0140      2.0309    
  2.4832      2.7257      2.9189      2.9977      2.9363      2.7654      2.5655      2.4331      2.4331      2.5660    
  2.7663      2.9369      2.9971      2.9174      2.7247      2.4840      2.2705      2.1461      2.1451      2.2687    
  2.9523      3.2507      3.4474      3.4868      3.3752      3.1877      3.0364      3.0112      3.1275      3.3165    
  3.4654      3.4801      3.3308      3.0567      2.7375      2.4580      2.2859      2.2598      2.3860      2.6367    
  3.5541      3.8909      4.0531      4.0139      3.8386      3.6603      3.6045      3.7102      3.9043      4.0482    
  4.0236      3.7951      3.4174      2.9952      2.6315      2.3994      2.3390      2.4597      2.7423      3.1354    
  4.2363      4.5237      4.5497      4.3661      4.1337      4.0300      4.1323      4.3644      4.5492      4.5246    
  4.2379      3.7583      3.2214      2.7592      2.4566      2.3528      2.4579      2.7607      3.2218      3.7573    
  4.7983      4.8580      4.6222      4.2864      4.0988      4.1959      4.5068      4.8037      4.8565      4.5717    
  4.0240      3.3845      2.8219      2.4430      2.2884      2.3666      2.6730      3.1812      3.8102      4.4094    
  4.8811      4.5376      4.0360      3.7110      3.7818      4.1999      4.6841      4.9127      4.7218      4.1716    
  3.4659      2.8179      2.3648      2.1565      2.1983      2.4895      3.0161      3.7028      4.3833      4.8334    
  4.1758      3.4584      2.9393      2.9405      3.4606      4.1766      4.6645      4.6630      4.1913      3.4724    
  2.7667      2.2493      1.9884      1.9885      2.2493      2.7659      3.4716      4.1917      4.6646      4.6657    
  2.7853      2.0411      1.9197      2.4927      3.4242      4.1994      4.4470      4.1199      3.4400      2.7075    
  2.1402      1.8298      1.7860      2.0066      2.4928      3.1883      3.9184      4.3965      4.3506      3.7223    
  1.3662      1.0852      1.6314      2.6948      3.7057      4.1952      4.0362      3.4263      2.6901      2.0845    
  1.7283      1.6404      1.8168      2.2617      2.9311      3.6607      4.1553      4.1063      3.4081      2.3141    
 0.76887      1.1930      2.2271      3.3201      3.9596      3.9487      3.4344      2.7306      2.1129      1.7237    
  1.5954      1.7237      2.1129      2.7306      3.4345      3.9491      3.9599      3.3199      2.2264      1.1923    
  1.3520      2.2691      3.3303      4.0130      4.0701      3.6002      2.8988      2.2513      1.8191      1.6474    
  1.7329      2.0793      2.6660      3.3756      3.9584      4.1024      3.6202      2.6376      1.6080      1.0802    
  2.7256      3.6359      4.2516      4.3065      3.8531      3.1513      2.4783      2.0057      1.7906      1.8334    
  2.1357      2.6863      3.3937      4.0453      4.3519      4.1024      3.3459      2.4421      1.8874      2.0049    
  4.0782      4.5614      4.5717      4.1235      3.4314      2.7480      2.2452      1.9905      1.9904      2.2454    
  2.7488      3.4320      4.1228      4.5699      4.5604      4.0795      3.3817      2.8765      2.8752      3.3791    
  4.7769      4.7426      4.3167      3.6625      2.9970      2.4839      2.1988      2.1578      2.3620      2.8043    
  3.4334      4.1136      4.6378      4.8112      4.5794      4.1034      3.6950      3.6257      3.9426      4.4342    
  4.7166      4.3496      3.7740      3.1641      2.6681      2.3677      2.2908      2.4428      2.8140      3.3619    
  3.9801      4.5037      4.7687      4.7061      4.4094      4.1030      4.0076      4.1917      4.5236      4.7625    
  4.1880      3.7286      3.2096      2.7593      2.4617      2.3580      2.4604      2.7579      3.2095      3.7300    
  4.1896      4.4578      4.4703      4.2816      4.0503      3.9489      4.0515      4.2832      4.4712      4.4572    
  3.5352      3.1299      2.7458      2.4677      2.3482      2.4078      2.6366      2.9933      3.4037      3.7662    
  3.9797      3.9933      3.8443      3.6495      3.5443      3.5999      3.7783      3.9569      4.0051      3.8566    
  2.9535      2.6452      2.3983      2.2732      2.2988      2.4688      2.7437      3.0548      3.3179      3.4561    
  3.4329      3.2800      3.0904      2.9746      2.9998      3.1507      3.3397      3.4566      3.4265      3.2413    
  2.4957      2.2844      2.1619      2.1627      2.2858      2.4960      2.7310      2.9158      2.9875      2.9215    
  2.7484      2.5485      2.4166      2.4166      2.5481      2.7476      2.9207      2.9877      2.9171      2.7320    
  2.1673      2.0500      2.0333      2.1217      2.2857      2.4692      2.6046      2.6350      2.5399      2.3492    
  2.1358      1.9862      1.9626      2.0747      2.2757      2.4838      2.6177      2.6301      2.5239      2.3466    
  1.9726      1.9418      2.0049      2.1393      2.2949      2.4079      2.4234      2.3197      2.1228      1.8998    
  1.7334      1.6867      1.7778      1.9718      2.1956      2.3679      2.4326      2.3792      2.2433      2.0869    
  1.9094      1.9545      2.0728      2.2199      2.3339      2.3579      2.2645      2.0732      1.8463      1.6650    
  1.5961      1.6650      1.8463      2.0732      2.2647      2.3583      2.3342      2.2197      2.0721      1.9538    
  1.9734      2.0874      2.2431      2.3786      2.4321      2.3679      2.1958      1.9719      1.7778      1.6867    
  1.7334      1.8998      2.1228      2.3199      2.4237      2.4079      2.2944      2.1387      2.0047      1.9423    
  2.1673      2.3460      2.5232      2.6299      2.6181      2.4842      2.2759      2.0747      1.9625      1.9861    
  2.1358      2.3492      2.5400      2.6351      2.6044      2.4688      2.2853      2.1219      2.0340      2.0507    
  2.4949      2.7315      2.9173      2.9884      2.9211      2.7476      2.5479      2.4165      2.4166      2.5485    
  2.7484      2.9215      2.9875      2.9157      2.7307      2.4960      2.2862      2.1633      2.1622      2.2840    
  2.9535      3.2420      3.4273      3.4568      3.3394      3.1503      2.9996      2.9747      3.0904      3.2800    
  3.4329      3.4561      3.3179      3.0548      2.7438      2.4692      2.2991      2.2730      2.3975      2.6446    
  3.5361      3.8570      4.0048      3.9563      3.7779      3.5999      3.5445      3.6496      3.8443      3.9933    
  3.9797      3.7662      3.4037      2.9935      2.6369      2.4078      2.3478      2.4670      2.7456      3.1303    
  4.1880      4.4565      4.4705      4.2830      4.0518      3.9493      4.0504      4.2815      4.4702      4.4578    
  4.1896      3.7300      3.2096      2.7579      2.4602      2.3576      2.4614      2.7595      3.2103      3.7293    
  4.7157      4.7621      4.5239      4.1923      4.0080      4.1030      4.4092      4.7059      4.7687      4.5037    
  3.9800      3.3619      2.8140      2.4427      2.2906      2.3677      2.6686      3.1647      3.7742      4.3491    
  4.7769      4.4349      3.9433      3.6259      3.6946      4.1030      4.5792      4.8113      4.6379      4.1136    
  3.4334      2.8043      2.3620      2.1578      2.1990      2.4843      2.9973      3.6623      4.3159      4.7420    
  4.0791      3.3795      2.8749      2.8759      3.3813      4.0795      4.5606      4.5700      4.1228      3.4320    
  2.7488      2.2454      1.9904      1.9906      2.2454      2.7480      3.4309      4.1229      4.5715      4.5619    
  2.7256      2.0042      1.8867      2.4419      3.3462      4.1028      4.3521      4.0453      3.3936      2.6863    
  2.1357      1.8334      1.7906      2.0057      2.4782      3.1509      3.8527      4.3067      4.2523      3.6365    
  1.3511      1.0797      1.6082      2.6382      3.6207      4.1024      3.9581      3.3754      2.6660      2.0793    
  1.7329      1.6474      1.8190      2.2511      2.8986      3.6002      4.0706      4.0136      3.3306      2.2687    
 0.79514      1.1789      2.1168      3.1163      3.7157      3.7310      3.2852      2.6562      2.0948      1.7371    
  1.6183      1.7371      2.0947      2.6561      3.2856      3.7318      3.7163      3.1159      2.1153      1.1775    
  1.3228      2.1549      3.1252      3.7637      3.8413      3.4373      2.8119      2.2241      1.8269      1.6678    
  1.7472      2.0664      2.6016      3.2387      3.7484      3.8533      3.3933      2.4901      1.5543      1.0768    
  2.5709      3.4069      3.9866      4.0640      3.6764      3.0515      2.4402      2.0050      1.8049      1.8449    
  2.1252      2.6301      3.2688      3.8439      4.0960      3.8433      3.1393      2.3124      1.8082      1.9148    
  3.8182      4.2811      4.3203      3.9386      3.3226      2.7010      2.2366      1.9985      1.9985      2.2368    
  2.7017      3.3230      3.9377      4.3183      4.2802      3.8198      3.1728      2.7091      2.7076      3.1698    
  4.4954      4.4961      4.1355      3.5539      2.9475      2.4719      2.2040      2.1653      2.3580      2.7700    
  3.3466      3.9567      4.4103      4.5369      4.2972      3.8446      3.4636      3.3991      3.6935      4.1569    
  4.4942      4.1873      3.6772      3.1213      2.6601      2.3762      2.3030      2.4477      2.7970      3.3032    
  3.8619      4.3194      4.5305      4.4418      4.1470      3.8538      3.7634      3.9378      4.2580      4.5036    
  4.0581      3.6542      3.1820      2.7625      2.4803      2.3809      2.4790      2.7613      3.1822      3.6558    
  4.0596      4.2767      4.2567      4.0575      3.8294      3.7312      3.8305      4.0592      4.2578      4.2766    
  3.4889      3.1225      2.7649      2.5007      2.3859      2.4431      2.6615      2.9965      3.3718      3.6905    
  3.8616      3.8449      3.6821      3.4860      3.3824      3.4371      3.6149      3.8024      3.8753      3.7659    
  2.9663      2.6810      2.4471      2.3269      2.3512      2.5138      2.7727      3.0581      3.2881      3.3934    
  3.3462      3.1817      2.9906      2.8765      2.9012      3.0510      3.2442      3.3766      3.3739      3.2226    
  2.5451      2.3467      2.2298      2.2302      2.3474      2.5449      2.7597      2.9192      2.9659      2.8819    
  2.7014      2.5021      2.3730      2.3730      2.5018      2.7006      2.8810      2.9658      2.9201      2.7607    
  2.2387      2.1281      2.1122      2.1958      2.3486      2.5146      2.6285      2.6388      2.5304      2.3357    
  2.1252      1.9800      1.9573      2.0658      2.2626      2.4718      2.6159      2.6468      2.5624      2.4046    
  2.0564      2.0277      2.0870      2.2110      2.3501      2.4432      2.4405      2.3254      2.1263      1.9081    
  1.7476      1.7029      1.7903      1.9780      2.1988      2.3764      2.4553      2.4214      2.3045      2.1626    
  1.9979      2.0401      2.1489      2.2800      2.3745      2.3803      2.2753      2.0814      1.8593      1.6847    
  1.6188      1.6847      1.8592      2.0813      2.2756      2.3811      2.3752      2.2796      2.1475      2.0388    
  2.0581      2.1636      2.3041      2.4201      2.4544      2.3764      2.1992      1.9783      1.7903      1.7029    
  1.7476      1.9080      2.1263      2.3257      2.4409      2.4432      2.3492      2.2098      2.0865      2.0287    
  2.2387      2.4032      2.5610      2.6464      2.6166      2.4726      2.2630      2.0657      1.9572      1.9800    
  2.1252      2.3357      2.5306      2.6389      2.6281      2.5137      2.3479      2.1962      2.1137      2.1294    
  2.5434      2.7598      2.9206      2.9671      2.8819      2.7006      2.5014      2.3727      2.3730      2.5021    
  2.7014      2.8819      2.9659      2.9189      2.7592      2.5449      2.3483      2.2315      2.2303      2.3458    
  2.9663      3.2239      3.3753      3.3770      3.2436      3.0502      2.9009      2.8766      2.9908      3.1818    
  3.3462      3.3934      3.2880      3.0580      2.7730      2.5146      2.3518      2.3265      2.4456      2.6797    
  3.4906      3.7669      3.8749      3.8011      3.6140      3.4371      3.3828      3.4863      3.6822      3.8449    
  3.8616      3.6905      3.3718      2.9968      2.6620      2.4431      2.3850      2.4995      2.7645      3.1235    
  4.0581      4.2752      4.2564      4.0587      3.8311      3.7320      3.8298      4.0574      4.2565      4.2767    
  4.0596      3.6558      3.1824      2.7614      2.4786      2.3801      2.4796      2.7629      3.1834      3.6555    
  4.4925      4.5026      4.2584      3.9391      3.7642      3.8538      4.1465      4.4415      4.5305      4.3194    
  3.8619      3.3033      2.7969      2.4474      2.3026      2.3762      2.6610      3.1225      3.6777      4.1863    
  4.4954      4.1583      3.6949      3.3995      3.4630      3.8438      4.2969      4.5370      4.4104      3.9567    
  3.3466      2.7699      2.3578      2.1652      2.2043      2.4727      2.9482      3.5534      4.1340      4.4948    
  3.8198      3.1707      2.7071      2.7078      3.1719      3.8198      4.2806      4.3186      3.9377      3.3230    
  2.7017      2.2368      1.9985      1.9988      2.2370      2.7010      3.3217      3.9374      4.3198      4.2820    
  2.5709      1.9135      1.8067      2.3120      3.1400      3.8441      4.0963      3.8438      3.2687      2.6301    
  2.1252      1.8449      1.8051      2.0051      2.4399      3.0507      3.6758      4.0644      3.9880      3.4082    
  1.3212      1.0759      1.5548      2.4914      3.3942      3.8533      3.7480      3.2383      2.6015      2.0664    
  1.7472      1.6678      1.8268      2.2238      2.8115      3.4373      3.8422      3.7649      3.1257      2.1539    
 0.86174      1.1879      1.9883      2.8528      3.3912      3.4381      3.0843      2.5574      2.0738      1.7599    
  1.6542      1.7599      2.0736      2.5573      3.0848      3.4393      3.3921      2.8522      1.9862      1.1859    
  1.3104      2.0210      2.8603      3.4319      3.5332      3.2173      2.6958      2.1906      1.8423      1.7006    
  1.7715      2.0530      2.5164      3.0540      3.4652      3.5200      3.0963      2.3088      1.5071      1.1012    
  2.3792      3.1075      3.6322      3.7361      3.4368      2.9174      2.3920      2.0094      1.8304      1.8664    
  2.1158      2.5565      3.1002      3.5708      3.7509      3.4986      2.8726      2.1564      1.7241      1.8154    
  3.4732      3.9034      3.9785      3.6868      3.1760      2.6414      2.2317      2.0173      2.0173      2.2319    
  2.6419      3.1762      3.6857      3.9766      3.9027      3.4750      2.9023      2.4984      2.4968      2.8991    
  4.1135      4.1595      3.8882      3.4082      2.8865      2.4654      2.2227      2.1874      2.3630      2.7308    
  3.2319      3.7433      4.0997      4.1640      3.9169      3.5002      3.1596      3.1021      3.3638      3.7848    
  4.1899      3.9665      3.5499      3.0731      2.6642      2.4058      2.3384      2.4716      2.7872      3.2314    
  3.7038      4.0679      4.2051      4.0826      3.7931      3.5204      3.4375      3.5975      3.8988      4.1506    
  3.8837      3.5613      3.1603      2.7893      2.5326      2.4410      2.5315      2.7884      3.1609      3.5630    
  3.8849      4.0297      3.9652      3.7536      3.5315      3.4383      3.5323      3.7550      3.9666      4.0300    
  3.4398      3.1357      2.8230      2.5846      2.4792      2.5318      2.7303      3.0270      3.3452      3.5957    
  3.7035      3.6432      3.4620      3.2649      3.1642      3.2171      3.3932      3.5922      3.7003      3.6488    
  3.0149      2.7725      2.5656      2.4569      2.4786      2.6245      2.8514      3.0898      3.2639      3.3162    
  3.2315      3.0499      2.8567      2.7450      2.7691      2.9170      3.1163      3.2723      3.3129      3.2169    
  2.6651      2.4965      2.3941      2.3942      2.4963      2.6644      2.8373      2.9487      2.9510      2.8358    
  2.6417      2.4421      2.3166      2.3166      2.4419      2.6411      2.8349      2.9506      2.9492      2.8382    
  2.4111      2.3189      2.3055      2.3757      2.5000      2.6257      2.6944      2.6644      2.5293      2.3243    
  2.1158      1.9760      1.9544      2.0584      2.2510      2.4653      2.6306      2.6980      2.6587      2.5440    
  2.2629      2.2400      2.2878      2.3844      2.4836      2.5318      2.4892      2.3482      2.1399      1.9252    
  1.7718      1.7296      1.8123      1.9930      2.2137      2.4060      2.5162      2.5249      2.4523      2.3467    
  2.2169      2.2505      2.3336      2.4255      2.4750      2.4399      2.3073      2.1027      1.8835      1.7167    
  1.6546      1.7166      1.8833      2.1026      2.3077      2.4411      2.4759      2.4249      2.3314      2.2486    
  2.2653      2.3481      2.4516      2.5231      2.5149      2.4060      2.2144      1.9935      1.8124      1.7296    
  1.7718      1.9252      2.1400      2.3487      2.4899      2.5318      2.4823      2.3825      2.2871      2.2414    
  2.4111      2.5420      2.6566      2.6974      2.6315      2.4665      2.2514      2.0582      1.9542      1.9760    
  2.1158      2.3244      2.5295      2.6646      2.6939      2.6245      2.4991      2.3763      2.3076      2.3209    
  2.6626      2.8368      2.9499      2.9524      2.8362      2.6411      2.4413      2.3162      2.3165      2.4421    
  2.6417      2.8358      2.9509      2.9483      2.8367      2.6644      2.4976      2.3960      2.3948      2.4951    
  3.0149      3.2188      3.3150      3.2729      3.1153      2.9157      2.7686      2.7451      2.8569      3.0499    
  3.2315      3.3162      3.2637      3.0897      2.8518      2.6257      2.4796      2.4563      2.5635      2.7706    
  3.4423      3.6502      3.6997      3.5903      3.3919      3.2171      3.1648      3.2653      3.4620      3.6432    
  3.7036      3.5957      3.3452      3.0275      2.7310      2.5318      2.4779      2.5827      2.8223      3.1371    
  3.8837      4.0281      3.9645      3.7544      3.5333      3.4395      3.5320      3.7534      3.9650      4.0297    
  3.8849      3.5630      3.1611      2.7886      2.5310      2.4397      2.5317      2.7899      3.1624      3.5632    
  4.1874      4.1492      3.8994      3.5993      3.4388      3.5204      3.7924      4.0822      4.2050      4.0680    
  3.7038      3.2314      2.7871      2.4711      2.3377      2.4058      2.6655      3.0750      3.5506      3.9651    
  4.1135      3.7868      3.3659      3.1027      3.1586      3.4990      3.9164      4.1641      4.0999      3.7433    
  3.2319      2.7308      2.3628      2.1873      2.2232      2.4666      2.8874      3.4076      3.8861      4.1576    
  3.4756      2.9005      2.4962      2.4966      2.9010      3.4750      3.9033      3.9771      3.6857      3.1762    
  2.6419      2.2319      2.0174      2.0178      2.2324      2.6414      3.1748      3.6850      3.9779      3.9048    
  2.3792      1.8134      1.7220      2.1558      2.8735      3.4998      3.7514      3.5707      3.1000      2.5565    
  2.1158      1.8664      1.8306      2.0095      2.3915      2.9162      3.4359      3.7367      3.6343      3.1094    
  1.3080      1.0998      1.5078      2.3106      3.0976      3.5200      3.4645      3.0535      2.5164      2.0530    
  1.7715      1.7006      1.8422      2.1901      2.6952      3.2173      3.5345      3.4337      2.8610      2.0196    
 0.97835      1.2407      1.8885      2.6005      3.0647      3.1380      2.8777      2.4584      2.0587      1.7918    
  1.6999      1.7917      2.0584      2.4582      2.8784      3.1396      3.0659      2.5998      1.8858      1.2383    
  1.3397      1.9152      2.6067      3.0980      3.2170      2.9905      2.5783      2.1621      1.8667      1.7437    
  1.8055      2.0464      2.4321      2.8640      3.1737      3.1818      2.8055      2.1499      1.4978      1.1710    
  2.2088      2.8148      3.2723      3.3974      3.1882      2.7804      2.3485      2.0236      1.8676      1.8992    
  2.1150      2.4852      2.9265      3.2875      3.3961      3.1520      2.6173      2.0258      1.6738      1.7481    
  3.1276      3.5153      3.6227      3.4239      3.0262      2.5877      2.2394      2.0518      2.0518      2.2396    
  2.5881      3.0262      3.4227      3.6209      3.5148      3.1296      2.6427      2.3063      2.3047      2.6395    
  3.7170      3.8066      3.6297      3.2611      2.8356      2.4776      2.2649      2.2337      2.3887      2.7051    
  3.1194      3.5213      3.7738      3.7752      3.5262      3.1538      2.8601      2.8108      3.0348      3.4050    
  3.8700      3.7372      3.4266      3.0433      2.6978      2.4722      2.4125      2.5305      2.8036      3.1731    
  3.5450      3.8049      3.8633      3.7084      3.4292      3.1821      3.1083      3.2508      3.5276      3.7815    
  3.7076      3.4819      3.1693      2.8621      2.6416      2.5614      2.6407      2.8617      3.1703      3.4836    
  3.7084      3.7716      3.6598      3.4376      3.2250      3.1381      3.2254      3.4388      3.6613      3.7723    
  3.4170      3.1958      2.9483      2.7508      2.6615      2.7062      2.8724      3.1118      3.3515      3.5143    
  3.5448      3.4341      3.2331      3.0365      2.9397      2.9903      3.1630      3.3735      3.5217      3.5396    
  3.1285      2.9550      2.7960      2.7095      2.7264      2.8412      3.0128      3.1778      3.2717      3.2526    
  3.1192      2.9159      2.7201      2.6112      2.6346      2.7801      2.9871      3.1733      3.2709      3.2507    
  2.8987      2.7872      2.7151      2.7147      2.7861      2.8976      2.9966      3.0298      2.9643      2.8032    
  2.5880      2.3855      2.2632      2.2632      2.3854      2.5875      2.8024      2.9636      3.0297      2.9973    
  2.7480      2.6953      2.6875      2.7285      2.7943      2.8428      2.8306      2.7319      2.5511      2.3257    
  2.1151      1.9795      1.9588      2.0590      2.2502      2.4776      2.6796      2.8090      2.8483      2.8143    
  2.6734      2.6632      2.6855      2.7234      2.7426      2.7062      2.5911      2.4015      2.1712      1.9540    
  1.8057      1.7656      1.8445      2.0212      2.2496      2.4723      2.6398      2.7269      2.7396      2.7086    
  2.6549      2.6689      2.6963      2.7085      2.6712      2.5600      2.3746      2.1445      1.9209      1.7591    
  1.7002      1.7590      1.9206      2.1443      2.3753      2.5616      2.6724      2.7077      2.6936      2.6664    
  2.6765      2.7104      2.7387      2.7245      2.6382      2.4723      2.2504      2.0218      1.8445      1.7656    
  1.8057      1.9539      2.1712      2.4021      2.5920      2.7062      2.7410      2.7210      2.6846      2.6650    
  2.7480      2.8119      2.8457      2.8082      2.6808      2.4791      2.2508      2.0588      1.9586      1.9794    
  2.1151      2.3258      2.5514      2.7321      2.8300      2.8412      2.7931      2.7293      2.6902      2.6978    
  2.8956      2.9955      3.0305      2.9659      2.8040      2.5875      2.3845      2.2626      2.2631      2.3855    
  2.5880      2.8033      2.9642      3.0292      2.9957      2.8976      2.7878      2.7170      2.7160      2.7854    
  3.1285      3.2532      3.2736      3.1741      2.9859      2.7786      2.6340      2.6114      2.7204      2.9160    
  3.1192      3.2525      3.2714      3.1776      3.0134      2.8428      2.7276      2.7087      2.7934      2.9526    
  3.4201      3.5414      3.5208      3.3711      3.1614      2.9903      2.9406      3.0371      3.2331      3.4340    
  3.5448      3.5143      3.3516      3.1124      2.8732      2.7062      2.6599      2.7485      2.9475      3.1976    
  3.7076      3.7699      3.6587      3.4380      3.2266      3.1397      3.2256      3.4375      3.6596      3.7715    
  3.7084      3.4836      3.1706      2.8619      2.6401      2.5599      2.6404      2.8629      3.1720      3.4843    
  3.8669      3.7797      3.5285      3.2531      3.1099      3.1821      3.4283      3.7078      3.8632      3.8050    
  3.5450      3.1731      2.8035      2.5299      2.4117      2.4722      2.6995      3.0456      3.4275      3.7354    
  3.7170      3.4075      3.0374      2.8116      2.8589      3.1522      3.5256      3.7754      3.7740      3.5214    
  3.1194      2.7050      2.3884      2.2335      2.2655      2.4791      2.8368      3.2604      3.6270      3.8042    
  3.1307      2.6412      2.3039      2.3040      2.6410      3.1296      3.5157      3.6215      3.4228      3.0261    
  2.5882      2.2395      2.0519      2.0524      2.2403      2.5877      3.0246      3.4215      3.6218      3.5171    
  2.2088      1.7456      1.6711      2.0251      2.6185      3.1535      3.3967      3.2873      2.9262      2.4852    
  2.1150      1.8993      1.8679      2.0238      2.3479      2.7789      3.1870      3.3982      3.2750      2.8173    
  1.3365      1.1693      1.4987      2.1522      2.8071      3.1818      3.1728      2.8634      2.4320      2.0465    
  1.8055      1.7437      1.8666      2.1615      2.5774      2.9905      3.2187      3.1004      2.6075      1.9134    
  1.1329      1.3354      1.8387      2.4034      2.7902      2.8788      2.6987      2.3766      2.0546      1.8304    
  1.7514      1.8304      2.0543      2.3764      2.6994      2.8806      2.7915      2.4025      1.8357      1.3326    
  1.4121      1.8598      2.4085      2.8170      2.9433      2.7928      2.4794      2.1463      1.8994      1.7936    
  1.8470      2.0507      2.3641      2.6993      2.9201      2.8935      2.5701      2.0436      1.5340      1.2817    
  2.0917      2.5786      2.9653      3.1014      2.9696      2.6640      2.3204      2.0496      1.9156      1.9430    