unknown system                          
   1.0000000000000000     
     1.971929    1.971929    0.000000
    -0.000000    3.943860    0.000000
    -0.000000   -0.000000    1.493328
   Be   H 
     1     1
Direct
  0.000000  0.000000  0.000000
  0.000000  0.500000  0.500000

   20   24   20
 0.76331      1.2016      2.2698      3.3956      4.0484      4.0270      3.4873      2.7567      2.1194      1.7197    
  1.5882      1.7197      2.1194      2.7567      3.4873      4.0270      4.0484      3.3956      2.2698      1.2016    
  1.3657      2.3132      3.4064      4.1040      4.1525      3.6581      2.9292      2.2608      1.8168      1.6410    
  1.7286      2.0840      2.6886      3.4239      4.0334      4.1927      3.7038      2.6936      1.6308      1.0849    
  2.7837      3.7203      4.3480      4.3936      3.9156      3.1862      2.4917      2.0064      1.7863      1.8301    
  2.1398      2.7061      3.4377      4.1171      4.4441      4.1969      3.4223      2.4912      1.9185      2.0398    
  4.1731      4.6627      4.6616      4.1888      3.4694      2.7645      2.2488      1.9886      1.9885      2.2489    
  2.7654      3.4702      4.1884      4.6599      4.6615      4.1739      3.4582      2.9382      2.9371      3.4560    
  4.8779      4.8303      4.3805      3.7006      3.0146      2.4889      2.1982      2.1564      2.3643      2.8167    
  3.4639      4.1690      4.7187      4.9095      4.6810      4.1968      3.7787      3.7080      4.0330      4.5345    
  4.7954      4.4068      3.8082      3.1798      2.6722      2.3662      2.2882      2.4425      2.8209      3.3828    
  4.0217      4.5690      4.8535      4.8006      4.5036      4.1926      4.0955      4.2831      4.6190      4.8549    
  4.2341      3.7555      3.2205      2.7599      2.4574      2.3524      2.4561      2.7583      3.2200      3.7565    
  4.2357      4.5221      4.5465      4.3616      4.1294      4.0270      4.1307      4.3632      4.5470      4.5211    
  3.5527      3.1343      2.7416      2.4592      2.3385      2.3989      2.6307      2.9942      3.4160      3.7934    
  4.0217      4.0462      3.9021      3.7080      3.6022      3.6581      3.8364      4.0118      4.0512      3.8891    
  2.9514      2.6360      2.3854      2.2594      2.2854      2.4574      2.7367      3.0557      3.3296      3.4788    
  3.4640      3.3151      3.1261      3.0098      3.0350      3.1862      3.3738      3.4854      3.4461      3.2496    
  2.4826      2.2682      2.1447      2.1457      2.2701      2.4834      2.7240      2.9166      2.9962      2.9360    
  2.7654      2.5651      2.4324      2.4323      2.5648      2.7646      2.9355      2.9968      2.9181      2.7249    
  2.1490      2.0305      2.0137      2.1029      2.2693      2.4574      2.5989      2.6352      2.5441      2.3544    
  2.1398      1.9886      1.9647      2.0781      2.2808      2.4889      2.6198      2.6265      2.5138      2.3313    
  1.9519      1.9206      1.9843      2.1208      2.2804      2.3989      2.4195      2.3188      2.1220      1.8972    
  1.7286      1.6812      1.7737      1.9701      2.1952      2.3662      2.4268      2.3681      2.2274      2.0679    
  1.8875      1.9329      2.0533      2.2043      2.3235      2.3524      2.2620      2.0709      1.8421      1.6583    
  1.5882      1.6583      1.8421      2.0709      2.2620      2.3524      2.3235      2.2043      2.0533      1.9329    
  1.9519      2.0679      2.2274      2.3681      2.4268      2.3662      2.1952      1.9701      1.7737      1.6812    
  1.7286      1.8972      2.1220      2.3188      2.4195      2.3989      2.2804      2.1208      1.9843      1.9206    
  2.1490      2.3313      2.5138      2.6265      2.6198      2.4889      2.2808      2.0781      1.9647      1.9886    
  2.1398      2.3544      2.5441      2.6352      2.5989      2.4574      2.2693      2.1029      2.0137      2.0305    
  2.4826      2.7249      2.9181      2.9968      2.9355      2.7646      2.5648      2.4323      2.4324      2.5651    
  2.7654      2.9360      2.9962      2.9166      2.7240      2.4834      2.2701      2.1457      2.1447      2.2682    
  2.9514      3.2496      3.4461      3.4854      3.3738      3.1862      3.0350      3.0098      3.1261      3.3151    
  3.4640      3.4788      3.3296      3.0557      2.7367      2.4574      2.2854      2.2594      2.3854      2.6360    
  3.5527      3.8891      4.0512      4.0118      3.8364      3.6581      3.6022      3.7080      3.9021      4.0462    
  4.0217      3.7934      3.4160      2.9942      2.6307      2.3989      2.3385      2.4592      2.7416      3.1343    
  4.2341      4.5211      4.5470      4.3632      4.1307      4.0270      4.1294      4.3616      4.5465      4.5221    
  4.2357      3.7565      3.2200      2.7583      2.4561      2.3524      2.4574      2.7599      3.2205      3.7555    
  4.7954      4.8549      4.6190      4.2831      4.0955      4.1926      4.5036      4.8006      4.8535      4.5690    
  4.0217      3.3828      2.8209      2.4425      2.2882      2.3662      2.6722      3.1798      3.8082      4.4068    
  4.8779      4.5345      4.0330      3.7080      3.7787      4.1968      4.6810      4.9095      4.7187      4.1690    
  3.4639      2.8167      2.3643      2.1564      2.1982      2.4889      3.0146      3.7006      4.3805      4.8303    
  4.1731      3.4560      2.9371      2.9382      3.4582      4.1739      4.6615      4.6599      4.1884      3.4702    
  2.7654      2.2489      1.9885      1.9886      2.2488      2.7645      3.4694      4.1888      4.6616      4.6627    
  2.7837      2.0398      1.9185      2.4912      3.4223      4.1969      4.4441      4.1171      3.4377      2.7061    
  2.1398      1.8301      1.7863      2.0064      2.4917      3.1862      3.9156      4.3936      4.3480      3.7203    
  1.3657      1.0849      1.6308      2.6936      3.7038      4.1927      4.0334      3.4239      2.6886      2.0840    
  1.7286      1.6410      1.8168      2.2608      2.9292      3.6581      4.1525      4.1040      3.4064      2.3132    
 0.76945      1.1933      2.2269      3.3190      3.9577      3.9463      3.4322      2.7291      2.1124      1.7241    
  1.5961      1.7241      2.1124      2.7291      3.4323      3.9467      3.9580      3.3188      2.2261      1.1927    
  1.3521      2.2688      3.3292      4.0111      4.0677      3.5979      2.8971      2.2505      1.8192      1.6480    
  1.7334      2.0789      2.6647      3.3734      3.9559      4.1002      3.6188      2.6369      1.6080      1.0804    
  2.7246      3.6343      4.2495      4.3040      3.8506      3.1494      2.4774      2.0056      1.7910      1.8337    
  2.1354      2.6851      3.3916      4.0428      4.3494      4.1004      3.3445      2.4412      1.8868      2.0042    
  4.0760      4.5589      4.5690      4.1210      3.4294      2.7468      2.2449      1.9907      1.9906      2.2451    
  2.7476      3.4300      4.1203      4.5671      4.5578      4.0772      3.3798      2.8748      2.8734      3.3772    
  4.7741      4.7398      4.3141      3.6604      2.9957      2.4833      2.1988      2.1579      2.3617      2.8033    
  3.4317      4.1112      4.6350      4.8084      4.5766      4.1007      3.6924      3.6232      3.9400      4.4315    
  4.7139      4.3472      3.7721      3.1628      2.6675      2.3674      2.2906      2.4424      2.8131      3.3604    
  3.9780      4.5012      4.7660      4.7033      4.4066      4.1002      4.0047      4.1888      4.5208      4.7597    
  4.1860      3.7270      3.2085      2.7586      2.4613      2.3577      2.4599      2.7571      3.2083      3.7283    
  4.1876      4.4555      4.4679      4.2791      4.0477      3.9463      4.0489      4.2806      4.4687      4.4549    
  3.5339      3.1289      2.7451      2.4672      2.3478      2.4074      2.6360      2.9924      3.4025      3.7647    
  3.9780      3.9915      3.8424      3.6476      3.5423      3.5979      3.7763      3.9550      4.0033      3.8550    
  2.9527      2.6446      2.3978      2.2729      2.2984      2.4683      2.7430      3.0540      3.3169      3.4549    
  3.4317      3.2787      3.0891      2.9734      2.9985      3.1495      3.3385      3.4554      3.4254      3.2403    
  2.4952      2.2840      2.1616      2.1624      2.2854      2.4955      2.7303      2.9151      2.9867      2.9207    
  2.7477      2.5478      2.4160      2.4160      2.5475      2.7469      2.9199      2.9869      2.9164      2.7314    
  2.1670      2.0498      2.0331      2.1214      2.2853      2.4688      2.6040      2.6344      2.5393      2.3487    
  2.1354      1.9859      1.9624      2.0744      2.2754      2.4833      2.6171      2.6295      2.5233      2.3461    
  1.9724      1.9417      2.0048      2.1390      2.2944      2.4074      2.4229      2.3192      2.1224      1.8996    
  1.7333      1.6867      1.7778      1.9716      2.1952      2.3674      2.4320      2.3787      2.2429      2.0867    
  1.9093      1.9543      2.0726      2.2194      2.3334      2.3573      2.2640      2.0729      1.8462      1.6650    
  1.5961      1.6650      1.8461      2.0728      2.2642      2.3577      2.3337      2.2192      2.0719      1.9537    
  1.9732      2.0871      2.2426      2.3780      2.4316      2.3674      2.1954      1.9717      1.7778      1.6867    
  1.7333      1.8996      2.1224      2.3194      2.4231      2.4074      2.2940      2.1384      2.0045      1.9422    
  2.1670      2.3455      2.5226      2.6293      2.6175      2.4837      2.2755      2.0744      1.9623      1.9859    
  2.1354      2.3487      2.5394      2.6344      2.6038      2.4684      2.2850      2.1216      2.0338      2.0504    
  2.4943      2.7309      2.9166      2.9876      2.9204      2.7469      2.5473      2.4159      2.4160      2.5478    
  2.7477      2.9207      2.9867      2.9149      2.7301      2.4955      2.2859      2.1630      2.1619      2.2836    
  2.9527      3.2410      3.4261      3.4556      3.3382      3.1491      2.9984      2.9735      3.0892      3.2787    
  3.4317      3.4549      3.3168      3.0539      2.7432      2.4688      2.2987      2.2727      2.3971      2.6440    
  3.5348      3.8555      4.0031      3.9544      3.7759      3.5979      3.5425      3.6477      3.8424      3.9915    
  3.9780      3.7647      3.4025      2.9926      2.6362      2.4074      2.3474      2.4666      2.7449      3.1294    
  4.1860      4.4542      4.4680      4.2804      4.0492      3.9467      4.0479      4.2790      4.4678      4.4555    
  4.1876      3.7283      3.2083      2.7571      2.4598      2.3573      2.4610      2.7588      3.2092      3.7277    
  4.7131      4.7592      4.5210      4.1895      4.0052      4.1002      4.4064      4.7031      4.7660      4.5012    
  3.9780      3.3604      2.8131      2.4423      2.2904      2.3674      2.6679      3.1634      3.7723      4.3467    
  4.7741      4.4322      3.9407      3.6234      3.6921      4.1003      4.5765      4.8084      4.6351      4.1112    
  3.4317      2.8033      2.3616      2.1578      2.1989      2.4837      2.9960      3.6602      4.3134      4.7391    
  4.0769      3.3777      2.8732      2.8742      3.3793      4.0772      4.5580      4.5673      4.1203      3.4300    
  2.7477      2.2451      1.9906      1.9908      2.2451      2.7468      3.4289      4.1203      4.5687      4.5593    
  2.7246      2.0035      1.8861      2.4410      3.3448      4.1008      4.3496      4.0427      3.3915      2.6851    
  2.1354      1.8337      1.7911      2.0056      2.4772      3.1490      3.8503      4.3042      4.2502      3.6350    
  1.3512      1.0800      1.6082      2.6375      3.6192      4.1002      3.9557      3.3733      2.6646      2.0789    
  1.7333      1.6480      1.8192      2.2504      2.8969      3.5979      4.0682      4.0117      3.3294      2.2683    
 0.79734      1.1808      2.1180      3.1164      3.7148      3.7295      3.2838      2.6553      2.0947      1.7377    
  1.6192      1.7377      2.0946      2.6552      3.2841      3.7303      3.7155      3.1160      2.1165      1.1795    
  1.3245      2.1560      3.1254      3.7628      3.8398      3.4358      2.8108      2.2238      1.8273      1.6686    
  1.7479      2.0664      2.6008      3.2372      3.7469      3.8522      3.3931      2.4909      1.5558      1.0787    
  2.5713      3.4065      3.9855      4.0624      3.6747      3.0502      2.4397      2.0052      1.8056      1.8455    
  2.1252      2.6294      3.2674      3.8421      4.0945      3.8424      3.1392      2.3130      1.8090      1.9156    
  3.8172      4.2796      4.3184      3.9368      3.3212      2.7003      2.2366      1.9989      1.9989      2.2368    
  2.7010      3.3216      3.9359      4.3165      4.2786      3.8187      3.1722      2.7088      2.7073      3.1693    
  4.4936      4.4941      4.1336      3.5524      2.9467      2.4716      2.2042      2.1655      2.3579      2.7693    
  3.3453      3.9549      4.4083      4.5350      4.2955      3.8432      3.4624      3.3979      3.6922      4.1554    
  4.4922      4.1855      3.6758      3.1204      2.6598      2.3762      2.3031      2.4476      2.7964      3.3022    
  3.8604      4.3176      4.5286      4.4400      4.1452      3.8521      3.7617      3.9361      4.2561      4.5016    
  4.0566      3.6530      3.1812      2.7621      2.4801      2.3808      2.4788      2.7608      3.1814      3.6545    
  4.0581      4.2751      4.2550      4.0559      3.8278      3.7295      3.8288      4.0574      4.2561      4.2749    
  3.4880      3.1219      2.7645      2.5005      2.3858      2.4430      2.6612      2.9959      3.3709      3.6894    
  3.8604      3.8436      3.6809      3.4847      3.3812      3.4358      3.6136      3.8011      3.8741      3.7648    
  2.9658      2.6807      2.4469      2.3268      2.3511      2.5135      2.7723      3.0576      3.2874      3.3926    
  3.3453      3.1810      2.9899      2.8758      2.9005      3.0503      3.2434      3.3758      3.3731      3.2219    
  2.5448      2.3466      2.2298      2.2302      2.3473      2.5447      2.7593      2.9187      2.9654      2.8815    
  2.7010      2.5018      2.3728      2.3728      2.5016      2.7003      2.8806      2.9653      2.9196      2.7603    
  2.2386      2.1282      2.1123      2.1958      2.3485      2.5143      2.6281      2.6384      2.5302      2.3355    
  2.1252      1.9801      1.9574      2.0659      2.2626      2.4716      2.6156      2.6464      2.5621      2.4044    
  2.0565      2.0279      2.0871      2.2110      2.3500      2.4430      2.4402      2.3252      2.1262      1.9082    
  1.7478      1.7032      1.7905      1.9780      2.1987      2.3762      2.4550      2.4211      2.3044      2.1626    
  1.9981      2.0403      2.1489      2.2799      2.3743      2.3800      2.2751      2.0814      1.8594      1.6850    
  1.6191      1.6850      1.8593      2.0813      2.2754      2.3808      2.3749      2.2795      2.1475      2.0390    
  2.0582      2.1636      2.3039      2.4199      2.4541      2.3762      2.1991      1.9783      1.7905      1.7032    
  1.7479      1.9081      2.1262      2.3255      2.4406      2.4430      2.3491      2.2098      2.0866      2.0289    
  2.2386      2.4030      2.5607      2.6460      2.6163      2.4724      2.2629      2.0658      1.9573      1.9801    
  2.1252      2.3356      2.5303      2.6385      2.6278      2.5135      2.3479      2.1962      2.1137      2.1295    
  2.5431      2.7594      2.9201      2.9666      2.8815      2.7003      2.5011      2.3725      2.3728      2.5018    
  2.7010      2.8815      2.9654      2.9184      2.7589      2.5447      2.3482      2.2314      2.2302      2.3456    
  2.9658      3.2232      3.3746      3.3762      3.2428      3.0495      2.9002      2.8759      2.9901      3.1810    
  3.3453      3.3926      3.2873      3.0575      2.7726      2.5143      2.3517      2.3264      2.4455      2.6794    
  3.4897      3.7658      3.8736      3.7998      3.6128      3.4358      3.3816      3.4850      3.6809      3.8436    
  3.8604      3.6894      3.3710      2.9962      2.6616      2.4430      2.3849      2.4993      2.7641      3.1228    
  4.0566      4.2736      4.2546      4.0570      3.8294      3.7303      3.8281      4.0558      4.2548      4.2751    
  4.0581      3.6546      3.1815      2.7609      2.4784      2.3800      2.4795      2.7625      3.1826      3.6543    
  4.4905      4.5006      4.2566      3.9373      3.7625      3.8521      4.1447      4.4397      4.5286      4.3176    
  3.8604      3.3022      2.7964      2.4473      2.3026      2.3762      2.6606      3.1216      3.6763      4.1845    
  4.4936      4.1567      3.6936      3.3983      3.4617      3.8424      4.2952      4.5351      4.4085      3.9550    
  3.3453      2.7693      2.3578      2.1654      2.2045      2.4724      2.9473      3.5520      4.1322      4.4928    
  3.8188      3.1702      2.7068      2.7075      3.1713      3.8187      4.2791      4.3168      3.9359      3.3216    
  2.7010      2.2368      1.9989      1.9992      2.2370      2.7003      3.3203      3.9356      4.3179      4.2805    
  2.5713      1.9143      1.8076      2.3126      3.1398      3.8432      4.0948      3.8420      3.2673      2.6294    
  2.1252      1.8455      1.8057      2.0053      2.4394      3.0494      3.6741      4.0628      3.9870      3.4079    
  1.3229      1.0777      1.5563      2.4921      3.3940      3.8522      3.7464      3.2369      2.6007      2.0664    
  1.7479      1.6686      1.8273      2.2235      2.8104      3.4358      3.8407      3.7641      3.1258      2.1550    
 0.86591      1.1917      1.9913      2.8546      3.3917      3.4379      3.0838      2.5572      2.0742      1.7608    
  1.6553      1.7608      2.0740      2.5571      3.0843      3.4391      3.3927      2.8540      1.9892      1.1898    
  1.3140      2.0238      2.8621      3.4325      3.5330      3.2168      2.6955      2.1908      1.8431      1.7017    
  1.7725      2.0534      2.5163      3.0535      3.4648      3.5202      3.0976      2.3112      1.5105      1.1050    
  2.3814      3.1088      3.6325      3.7357      3.4361      2.9169      2.3920      2.0099      1.8313      1.8672    
  2.1162      2.5564      3.0996      3.5702      3.7507      3.4992      2.8741      2.1588      1.7269      1.8181    
  3.4738      3.9032      3.9779      3.6860      3.1754      2.6412      2.2320      2.0180      2.0180      2.2323    
  2.6418      3.1756      3.6848      3.9759      3.9025      3.4756      2.9035      2.5000      2.4984      2.9004    
  4.1130      4.1586      3.8873      3.4075      2.8862      2.4655      2.2232      2.1879      2.3632      2.7306    
  3.2312      3.7424      4.0987      4.1633      3.9166      3.5004      3.1601      3.1027      3.3641      3.7847    
  4.1889      3.9655      3.5492      3.0727      2.6642      2.4061      2.3388      2.4718      2.7870      3.2309    
  3.7030      4.0670      4.2042      4.0820      3.7927      3.5202      3.4374      3.5972      3.8982      4.1498    
  3.8829      3.5607      3.1599      2.7893      2.5328      2.4412      2.5316      2.7883      3.1605      3.5623    
  3.8841      4.0289      3.9645      3.7530      3.5311      3.4379      3.5319      3.7544      3.9658      4.0292    
  3.4394      3.1354      2.8230      2.5847      2.4793      2.5319      2.7303      3.0268      3.3447      3.5952    
  3.7030      3.6427      3.4615      3.2646      3.1639      3.2168      3.3928      3.5916      3.6997      3.6482    
  3.0148      2.7725      2.5657      2.4571      2.4788      2.6246      2.8513      3.0896      3.2636      3.3159    
  3.2312      3.0497      2.8567      2.7450      2.7692      2.9169      3.1161      3.2720      3.3125      3.2166    
  2.6651      2.4967      2.3944      2.3945      2.4966      2.6645      2.8373      2.9486      2.9509      2.8358    
  2.6418      2.4423      2.3169      2.3170      2.4422      2.6412      2.8349      2.9505      2.9491      2.8382    
  2.4114      2.3193      2.3059      2.3760      2.5003      2.6258      2.6944      2.6644      2.5294      2.3246    
  2.1162      1.9765      1.9549      2.0589      2.2513      2.4655      2.6306      2.6980      2.6587      2.5441    
  2.2633      2.2404      2.2882      2.3847      2.4837      2.5319      2.4893      2.3483      2.1402      1.9257    
  1.7724      1.7303      1.8130      1.9935      2.2140      2.4061      2.5162      2.5250      2.4525      2.3471    
  2.2174      2.2510      2.3339      2.4257      2.4751      2.4400      2.3074      2.1030      1.8840      1.7173    
  1.6553      1.7173      1.8838      2.1029      2.3079      2.4412      2.4760      2.4251      2.3318      2.2490    
  2.2658      2.3485      2.4518      2.5231      2.5149      2.4061      2.2146      1.9939      1.8130      1.7303    
  1.7725      1.9256      2.1403      2.3488      2.4900      2.5319      2.4825      2.3828      2.2876      2.2418    
  2.4114      2.5422      2.6566      2.6974      2.6315      2.4667      2.2518      2.0587      1.9547      1.9765    
  2.1162      2.3246      2.5296      2.6646      2.6939      2.6246      2.4993      2.3766      2.3080      2.3212    
  2.6627      2.8368      2.9497      2.9523      2.8362      2.6412      2.4415      2.3165      2.3169      2.4423    
  2.6418      2.8358      2.9508      2.9482      2.8366      2.6645      2.4979      2.3963      2.3951      2.4953    
  3.0148      3.2185      3.3147      3.2726      3.1151      2.9157      2.7687      2.7451      2.8569      3.0498    
  3.2312      3.3159      3.2634      3.0895      2.8518      2.6258      2.4797      2.4565      2.5636      2.7706    
  3.4418      3.6496      3.6991      3.5898      3.3915      3.2168      3.1646      3.2650      3.4616      3.6427    
  3.7030      3.5952      3.3448      3.0273      2.7310      2.5319      2.4780      2.5828      2.8223      3.1368    
  3.8829      4.0272      3.9637      3.7538      3.5328      3.4391      3.5316      3.7528      3.9643      4.0289    
  3.8841      3.5624      3.1607      2.7885      2.5311      2.4400      2.5319      2.7899      3.1620      3.5626    
  4.1865      4.1484      3.8989      3.5990      3.4387      3.5202      3.7920      4.0815      4.2042      4.0670    
  3.7029      3.2309      2.7870      2.4713      2.3381      2.4061      2.6655      3.0746      3.5498      3.9641    
  4.1130      3.7867      3.3662      3.1033      3.1591      3.4992      3.9161      4.1635      4.0989      3.7424    
  3.2312      2.7306      2.3630      2.1878      2.2237      2.4667      2.8871      3.4069      3.8852      4.1567    
  3.4762      2.9018      2.4978      2.4982      2.9022      3.4756      3.9032      3.9764      3.6849      3.1756    
  2.6418      2.2323      2.0181      2.0185      2.2327      2.6412      3.1741      3.6841      3.9772      3.9046    
  2.3814      1.8162      1.7248      2.1582      2.8751      3.5004      3.7512      3.5700      3.0995      2.5564    
  2.1162      1.8673      1.8315      2.0101      2.3915      2.9157      3.4352      3.7363      3.6346      3.1107    
  1.3116      1.1036      1.5112      2.3131      3.0989      3.5202      3.4641      3.0530      2.5162      2.0534    
  1.7725      1.7017      1.8430      2.1903      2.6948      3.2168      3.5342      3.4343      2.8627      2.0224    
 0.98403      1.2461      1.8929      2.6036      3.0665      3.1389      2.8782      2.4589      2.0595      1.7929    
  1.7012      1.7929      2.0592      2.4587      2.8788      3.1404      3.0677      2.6028      1.8902      1.2436    
  1.3448      1.9194      2.6098      3.0999      3.2179      2.9909      2.5786      2.1628      1.8678      1.7449    
  1.8067      2.0473      2.4326      2.8644      3.1743      3.1832      2.8081      2.1537      1.5027      1.1764    
  2.2125      2.8175      3.2739      3.3982      3.1884      2.7807      2.3490      2.0245      1.8688      1.9003    
  2.1158      2.4857      2.9267      3.2879      3.3970      3.1539      2.6203      2.0297      1.6782      1.7524    
  3.1296      3.5164      3.6231      3.4240      3.0263      2.5881      2.2401      2.0528      2.0527      2.2403    
  2.5885      3.0263      3.4228      3.6213      3.5159      3.1316      2.6454      2.3095      2.3079      2.6422    
  3.7177      3.8068      3.6296      3.2611      2.8358      2.4781      2.2656      2.2344      2.3893      2.7053    
  3.1194      3.5212      3.7738      3.7757      3.5272      3.1554      2.8621      2.8129      3.0365      3.4063    
  3.8700      3.7370      3.4265      3.0434      2.6982      2.4727      2.4131      2.5309      2.8038      3.1731    
  3.5448      3.8048      3.8634      3.7089      3.4301      3.1832      3.1095      3.2518      3.5283      3.7818    
  3.7074      3.4817      3.1693      2.8624      2.6420      2.5619      2.6411      2.8619      3.1703      3.4834    
  3.7082      3.7715      3.6600      3.4381      3.2257      3.1389      3.2261      3.4392      3.6615      3.7723    
  3.4169      3.1959      2.9486      2.7512      2.6619      2.7065      2.8726      3.1118      3.3515      3.5142    
  3.5448      3.4342      3.2334      3.0370      2.9403      2.9909      3.1634      3.3737      3.5217      3.5395    
  3.1286      2.9553      2.7964      2.7098      2.7268      2.8415      3.0130      3.1779      3.2717      3.2527    
  3.1194      2.9163      2.7207      2.6119      2.6353      2.7807      2.9875      3.1735      3.2710      3.2508    
  2.8990      2.7875      2.7155      2.7151      2.7865      2.8979      2.9968      3.0300      2.9645      2.8036    
  2.5885      2.3861      2.2640      2.2640      2.3861      2.5881      2.8027      2.9638      3.0298      2.9975    
  2.7484      2.6958      2.6881      2.7290      2.7947      2.8431      2.8309      2.7322      2.5515      2.3263    
  2.1158      1.9804      1.9598      2.0598      2.2509      2.4780      2.6799      2.8093      2.8486      2.8147    
  2.6740      2.6638      2.6861      2.7239      2.7430      2.7065      2.5915      2.4019      2.1718      1.9548    
  1.8066      1.7666      1.8454      2.0220      2.2501      2.4727      2.6401      2.7272      2.7400      2.7091    
  2.6556      2.6695      2.6968      2.7089      2.6715      2.5603      2.3751      2.1451      1.9217      1.7600    
  1.7012      1.7600      1.9214      2.1449      2.3757      2.5619      2.6727      2.7081      2.6941      2.6670    
  2.6771      2.7109      2.7391      2.7249      2.6385      2.4727      2.2510      2.0226      1.8455      1.7666    
  1.8067      1.9547      2.1718      2.4025      2.5923      2.7065      2.7414      2.7215      2.6852      2.6656    
  2.7484      2.8122      2.8459      2.8085      2.6811      2.4796      2.2515      2.0597      1.9595      1.9803    
  2.1158      2.3263      2.5518      2.7324      2.8303      2.8415      2.7935      2.7298      2.6907      2.6983    
  2.8959      2.9957      3.0307      2.9661      2.8044      2.5881      2.3853      2.2634      2.2639      2.3862    
  2.5885      2.8036      2.9644      3.0294      2.9960      2.8979      2.7882      2.7175      2.7164      2.7857    
  3.1286      3.2532      3.2736      3.1743      2.9863      2.7791      2.6347      2.6121      2.7210      2.9164    
  3.1194      3.2526      3.2715      3.1777      3.0136      2.8431      2.7280      2.7091      2.7937      2.9528    
  3.4200      3.5413      3.5208      3.3713      3.1618      2.9909      2.9412      3.0376      3.2335      3.4342    
  3.5448      3.5142      3.3515      3.1124      2.8734      2.7065      2.6603      2.7488      2.9477      3.1977    
  3.7074      3.7698      3.6588      3.4384      3.2273      3.1404      3.2263      3.4379      3.6597      3.7715    
  3.7082      3.4835      3.1706      2.8621      2.6404      2.5603      2.6408      2.8632      3.1720      3.4842    
  3.8668      3.7800      3.5292      3.2542      3.1111      3.1832      3.4292      3.7083      3.8633      3.8048    
  3.5448      3.1731      2.8037      2.5303      2.4123      2.4727      2.6998      3.0457      3.4273      3.7352    
  3.7177      3.4087      3.0392      2.8136      2.8609      3.1539      3.5266      3.7759      3.7741      3.5213    
  3.1194      2.7053      2.3890      2.2343      2.2663      2.4796      2.8370      3.2603      3.6269      3.8043    
  3.1327      2.6440      2.3071      2.3071      2.6437      3.1316      3.5168      3.6219      3.4228      3.0262    
  2.5885      2.2402      2.0528      2.0534      2.2410      2.5881      3.0246      3.4216      3.6222      3.5182    
  2.2125      1.7499      1.6755      2.0290      2.6215      3.1554      3.3977      3.2877      2.9265      2.4856    
  2.1158      1.9004      1.8690      2.0247      2.3484      2.7791      3.1872      3.3989      3.2766      2.8200    
  1.3417      1.1746      1.5036      2.1561      2.8097      3.1832      3.1735      2.8638      2.4325      2.0473    
  1.8066      1.7450      1.8677      2.1622      2.5778      2.9909      3.2196      3.1022      2.6106      1.9177    
  1.1390      1.3412      1.8436      2.4070      2.7926      2.8803      2.6997      2.3774      2.0556      1.8316    
  1.7527      1.8316      2.0553      2.3772      2.7004      2.8820      2.7940      2.4061      1.8405      1.3384    
  1.4177      1.8646      2.4122      2.8195      2.9448      2.7938      2.4802      2.1472      1.9005      1.7949    
  1.8482      2.0517      2.3649      2.7002      2.9214      2.8956      2.5733      2.0481      1.5394      1.2875    
  2.0960      2.5819      2.9675      3.1027      2.9705      2.6647      2.3212      2.0507      1.9167      1.9441    