unknown system                          
   1.0000000000000000     
     1.603240    1.603240    0.000000
    -0.000000    3.206481    0.000000
     0.000000    0.000000    2.266682
   Be   H 
     1     1
Direct
  0.000000  0.000000  0.000000
  0.000000  0.500000  0.500000

   20   24   20
 0.76335287810E+00 0.12017987343E+01 0.22705570912E+01 0.33971783711E+01 0.40507457454E+01
 0.40296974580E+01 0.34898011236E+01 0.27583846286E+01 0.21200858241E+01 0.17193890264E+01
 0.15875941007E+01 0.17193890262E+01 0.21200858237E+01 0.27583846281E+01 0.34898011230E+01
 0.40296974573E+01 0.40507457448E+01 0.33971783705E+01 0.22705570908E+01 0.12017987341E+01
 0.13661632091E+01 0.23141107034E+01 0.34080505308E+01 0.41063389322E+01 0.41552629997E+01
 0.36606673524E+01 0.29310923630E+01 0.22617090270E+01 0.18167595577E+01 0.16404489401E+01
 0.17282726983E+01 0.20845130463E+01 0.26901238596E+01 0.34263468910E+01 0.40361958266E+01
 0.41951911299E+01 0.37057291849E+01 0.26948043255E+01 0.16313987304E+01 0.10852349988E+01
 0.27852772320E+01 0.37223182665E+01 0.43505823016E+01 0.43965158250E+01 0.39183658109E+01
 0.31882865010E+01 0.24928158482E+01 0.20065795404E+01 0.17859917136E+01 0.18298236132E+01
 0.21401820688E+01 0.27074715069E+01 0.34399685486E+01 0.41199201525E+01 0.44470040658E+01
 0.41993524838E+01 0.34242457116E+01 0.24927488444E+01 0.19197391736E+01 0.20410815598E+01
 0.41757651510E+01 0.46656512973E+01 0.46646347287E+01 0.41916710390E+01 0.34716083983E+01
 0.27658818189E+01 0.22492681655E+01 0.19884814873E+01 0.19883558190E+01 0.22493439060E+01
 0.27666548516E+01 0.34724201136E+01 0.41912596186E+01 0.46629776367E+01 0.46644780224E+01
 0.41766370436E+01 0.34606368138E+01 0.29405215243E+01 0.29393404192E+01 0.34584161207E+01
 0.48811231033E+01 0.48334268971E+01 0.43833118657E+01 0.37027782957E+01 0.30160817600E+01
 0.24895494984E+01 0.21983422687E+01 0.21564788456E+01 0.23647614283E+01 0.28178703655E+01
 0.34659033672E+01 0.41716476902E+01 0.47217651793E+01 0.49126662796E+01 0.46841213186E+01
 0.41999179086E+01 0.37817761864E+01 0.37110245903E+01 0.40360312861E+01 0.45376015131E+01
 0.47983294616E+01 0.44093735081E+01 0.38102482036E+01 0.31811888890E+01 0.26729626907E+01
 0.23666144976E+01 0.22884262161E+01 0.24429804202E+01 0.28218934637E+01 0.33844762033E+01
 0.40239790246E+01 0.45717052797E+01 0.48565253220E+01 0.48037493561E+01 0.45067938746E+01
 0.41958668590E+01 0.40988162102E+01 0.42864031577E+01 0.46222025010E+01 0.48580484147E+01
 0.42362614039E+01 0.37572685584E+01 0.32218184546E+01 0.27607140179E+01 0.24579028830E+01
 0.23527951023E+01 0.24566152160E+01 0.27592176994E+01 0.32213756850E+01 0.37582732833E+01
 0.42379028435E+01 0.45245942512E+01 0.45491582729E+01 0.43644458734E+01 0.41322829513E+01
 0.40299577059E+01 0.41336555714E+01 0.43660777913E+01 0.45497343505E+01 0.45236707704E+01
 0.35541202912E+01 0.31353641338E+01 0.27423449976E+01 0.24597344048E+01 0.23389780738E+01
 0.23994467379E+01 0.26314837415E+01 0.29952125298E+01 0.34173923601E+01 0.37950884415E+01
 0.40235815500E+01 0.40482447671E+01 0.39042656708E+01 0.37101821058E+01 0.36044671685E+01
 0.36603418899E+01 0.38386467515E+01 0.40138700157E+01 0.40531083474E+01 0.38908611782E+01
 0.29523475818E+01 0.26366718020E+01 0.23859638435E+01 0.22598386244E+01 0.22859123833E+01
 0.24580291964E+01 0.27374576424E+01 0.30566975278E+01 0.33307635571E+01 0.34801164832E+01
 0.34653507154E+01 0.33164689091E+01 0.31274988708E+01 0.30112120825E+01 0.30363923551E+01
 0.31876614809E+01 0.33751764828E+01 0.34867858466E+01 0.34473715810E+01 0.32506881569E+01
 0.24832218176E+01 0.22686682618E+01 0.21450771713E+01 0.21460540210E+01 0.22705277018E+01
 0.24839941731E+01 0.27246993698E+01 0.29174219602E+01 0.29971372012E+01 0.29369481005E+01
 0.27662890035E+01 0.25659844469E+01 0.24331439169E+01 0.24330652479E+01 0.25655472328E+01
 0.27654161310E+01 0.29363362779E+01 0.29976911325E+01 0.29189361956E+01 0.27256724131E+01
 0.21494676483E+01 0.20308678342E+01 0.20140043392E+01 0.21032371484E+01 0.22697743802E+01
 0.24580264120E+01 0.25995630523E+01 0.26359748997E+01 0.25447739226E+01 0.23549885602E+01
 0.21402431023E+01 0.19889385106E+01 0.19650172580E+01 0.20785322536E+01 0.22813313569E+01
 0.24894901894E+01 0.26204639589E+01 0.26272047705E+01 0.25145188337E+01 0.23318864544E+01
 0.19522026258E+01 0.19208710186E+01 0.19845530154E+01 0.21211626948E+01 0.22809745265E+01
 0.23995533394E+01 0.24201825647E+01 0.23194282046E+01 0.21225191449E+01 0.18975345053E+01
 0.17287564261E+01 0.16813634475E+01 0.17738720899E+01 0.19703717180E+01 0.21956640347E+01
 0.23668538267E+01 0.24275188720E+01 0.23687566778E+01 0.22279312171E+01 0.20682790843E+01
 0.18876769468E+01 0.19331195285E+01 0.20536658741E+01 0.22048010216E+01 0.23241827158E+01
 0.23530528441E+01 0.22625625795E+01 0.20713437122E+01 0.18423334607E+01 0.16583921927E+01
 0.15882523914E+01 0.16583921930E+01 0.18423334612E+01 0.20713437129E+01 0.22625625802E+01
 0.23530528448E+01 0.23241827164E+01 0.22048010221E+01 0.20536658745E+01 0.19331195287E+01
 0.19522026255E+01 0.20682790839E+01 0.22279312164E+01 0.23687566770E+01 0.24275188710E+01
 0.23668538258E+01 0.21956640338E+01 0.19703717173E+01 0.17738720894E+01 0.16813634473E+01
 0.17287564262E+01 0.18975345056E+01 0.21225191454E+01 0.23194282052E+01 0.24201825653E+01
 0.23995533399E+01 0.22809745269E+01 0.21211626951E+01 0.19845530155E+01 0.19208710185E+01
 0.21494676478E+01 0.23318864536E+01 0.25145188328E+01 0.26272047694E+01 0.26204639578E+01
 0.24894901883E+01 0.22813313560E+01 0.20785322529E+01 0.19650172575E+01 0.19889385104E+01
 0.21402431024E+01 0.23549885605E+01 0.25447739229E+01 0.26359749001E+01 0.25995630527E+01
 0.24580264122E+01 0.22697743803E+01 0.21032371483E+01 0.20140043390E+01 0.20308678338E+01
 0.24832218166E+01 0.27256724119E+01 0.29189361943E+01 0.29976911312E+01 0.29363362766E+01
 0.27654161299E+01 0.25655472319E+01 0.24330652473E+01 0.24331439165E+01 0.25659844468E+01
 0.27662890036E+01 0.29369481007E+01 0.29971372015E+01 0.29174219604E+01 0.27246993699E+01
 0.24839941731E+01 0.22705277016E+01 0.21460540207E+01 0.21450771707E+01 0.22686682610E+01
 0.29523475805E+01 0.32506881555E+01 0.34473715796E+01 0.34867858452E+01 0.33751764815E+01
 0.31876614798E+01 0.30363923543E+01 0.30112120820E+01 0.31274988705E+01 0.33164689090E+01
 0.34653507154E+01 0.34801164833E+01 0.33307635572E+01 0.30566975278E+01 0.27374576423E+01
 0.24580291961E+01 0.22859123828E+01 0.22598386237E+01 0.23859638426E+01 0.26366718009E+01
 0.35541202897E+01 0.38908611767E+01 0.40531083460E+01 0.40138700143E+01 0.38386467504E+01
 0.36603418890E+01 0.36044671679E+01 0.37101821054E+01 0.39042656706E+01 0.40482447670E+01
 0.40235815500E+01 0.37950884415E+01 0.34173923601E+01 0.29952125296E+01 0.26314837411E+01
 0.23994467374E+01 0.23389780730E+01 0.24597344038E+01 0.27423449964E+01 0.31353641324E+01
 0.42362614023E+01 0.45236707689E+01 0.45497343491E+01 0.43660777901E+01 0.41336555705E+01
 0.40299577052E+01 0.41322829509E+01 0.43644458731E+01 0.45491582728E+01 0.45245942511E+01
 0.42379028434E+01 0.37582732832E+01 0.32213756848E+01 0.27592176990E+01 0.24566152154E+01
 0.23527951015E+01 0.24579028820E+01 0.27607140166E+01 0.32218184532E+01 0.37572685569E+01
 0.47983294602E+01 0.48580484134E+01 0.46222024998E+01 0.42864031568E+01 0.40988162095E+01
 0.41958668585E+01 0.45067938743E+01 0.48037493560E+01 0.48565253219E+01 0.45717052797E+01
 0.40239790245E+01 0.33844762031E+01 0.28218934633E+01 0.24429804196E+01 0.22884262153E+01
 0.23666144966E+01 0.26729626895E+01 0.31811888876E+01 0.38102482021E+01 0.44093735066E+01
 0.48811231020E+01 0.45376015120E+01 0.40360312852E+01 0.37110245896E+01 0.37817761860E+01
 0.41999179084E+01 0.46841213185E+01 0.49126662796E+01 0.47217651793E+01 0.41716476902E+01
 0.34659033671E+01 0.28178703652E+01 0.23647614279E+01 0.21564788449E+01 0.21983422678E+01
 0.24895494973E+01 0.30160817588E+01 0.37027782944E+01 0.43833118643E+01 0.48334268957E+01
 0.41757651500E+01 0.34584161199E+01 0.29393404186E+01 0.29405215239E+01 0.34606368136E+01
 0.41766370436E+01 0.46644780225E+01 0.46629776368E+01 0.41912596187E+01 0.34724201136E+01
 0.27666548515E+01 0.22493439057E+01 0.19883558185E+01 0.19884814866E+01 0.22492681645E+01
 0.27658818178E+01 0.34716083971E+01 0.41916710377E+01 0.46646347275E+01 0.46656512962E+01
 0.27852772313E+01 0.20410815593E+01 0.19197391733E+01 0.24927488443E+01 0.34242457117E+01
 0.41993524840E+01 0.44470040661E+01 0.41199201528E+01 0.34399685488E+01 0.27074715070E+01
 0.21401820687E+01 0.18298236129E+01 0.17859917131E+01 0.20065795397E+01 0.24928158473E+01
 0.31882865000E+01 0.39183658099E+01 0.43965158239E+01 0.43505823006E+01 0.37223182657E+01
 0.13661632087E+01 0.10852349987E+01 0.16313987305E+01 0.26948043258E+01 0.37057291853E+01
 0.41951911304E+01 0.40361958271E+01 0.34263468914E+01 0.26901238599E+01 0.20845130464E+01
 0.17282726982E+01 0.16404489399E+01 0.18167595572E+01 0.22617090264E+01 0.29310923622E+01
 0.36606673516E+01 0.41552629988E+01 0.41063389313E+01 0.34080505300E+01 0.23141107029E+01
 0.76886674902E+00 0.11929602783E+01 0.22270925939E+01 0.33200826691E+01 0.39595561860E+01
 0.39486677892E+01 0.34343691851E+01 0.27306020288E+01 0.21129429218E+01 0.17237343746E+01
 0.15954244650E+01 0.17237298934E+01 0.21128802397E+01 0.27305526060E+01 0.34345328319E+01
 0.39490775383E+01 0.39598742277E+01 0.33198788515E+01 0.22263758848E+01 0.11923017701E+01
 0.13519619982E+01 0.22691460245E+01 0.33303276074E+01 0.40130175449E+01 0.40701259437E+01
 0.36002302364E+01 0.28987887159E+01 0.22512672798E+01 0.18190597499E+01 0.16473602917E+01
 0.17329393871E+01 0.20792607686E+01 0.26659982168E+01 0.33755637036E+01 0.39583561483E+01
 0.41023800513E+01 0.36202174805E+01 0.26375740502E+01 0.16080126403E+01 0.10802108446E+01
 0.27256198510E+01 0.36358776467E+01 0.42516302101E+01 0.43065319930E+01 0.38530519774E+01
 0.31513185219E+01 0.24783476723E+01 0.20056525657E+01 0.17905615215E+01 0.18333778053E+01
 0.21356954888E+01 0.26863400048E+01 0.33936797536E+01 0.40453302383E+01 0.43519424957E+01
 0.41024303139E+01 0.33459118863E+01 0.24421415689E+01 0.18874376907E+01 0.20048649873E+01
 0.40782355234E+01 0.45614136238E+01 0.45717029849E+01 0.41235373805E+01 0.34313723506E+01
 0.27480125871E+01 0.22452043470E+01 0.19904634311E+01 0.19903938109E+01 0.22453714392E+01
 0.27487586349E+01 0.34319676583E+01 0.41228258393E+01 0.45698823398E+01 0.45603752117E+01
 0.40795020889E+01 0.33817089309E+01 0.28765236968E+01 0.28751625125E+01 0.33790658999E+01
 0.47769185090E+01 0.47426290785E+01 0.43166518152E+01 0.36624643782E+01 0.29969967141E+01
 0.24838526541E+01 0.21988321640E+01 0.21578487370E+01 0.23620425008E+01 0.28043113484E+01
 0.34334361421E+01 0.41136443367E+01 0.46378021521E+01 0.48112343532E+01 0.45793891907E+01
 0.41033806153E+01 0.36949552247E+01 0.36257275367E+01 0.39425714562E+01 0.44342434536E+01
 0.47165788966E+01 0.43495536470E+01 0.37739503902E+01 0.31640557625E+01 0.26681493739E+01
 0.23676768917E+01 0.22908161518E+01 0.24428465112E+01 0.28140497371E+01 0.33619085510E+01
 0.39800559390E+01 0.45037077691E+01 0.47686834670E+01 0.47060775195E+01 0.44094316823E+01
 0.41030253613E+01 0.40075856788E+01 0.41917154575E+01 0.45236420786E+01 0.47625323820E+01
 0.41880122830E+01 0.37286489954E+01 0.32096000385E+01 0.27592634541E+01 0.24617164278E+01
 0.23580345033E+01 0.24603841247E+01 0.27578820369E+01 0.32094951175E+01 0.37299548570E+01
 0.41896119509E+01 0.44577789752E+01 0.44703041847E+01 0.42815508043E+01 0.40502655893E+01
 0.39489148439E+01 0.40515256369E+01 0.42832176896E+01 0.44711919469E+01 0.44572056241E+01
 0.35352196581E+01 0.31298675311E+01 0.27458076266E+01 0.24676706733E+01 0.23482105012E+01
 0.24078370806E+01 0.26366287038E+01 0.29933315940E+01 0.34037036855E+01 0.37662169010E+01
 0.39796628226E+01 0.39933443618E+01 0.38442667019E+01 0.36494946607E+01 0.35442863979E+01
 0.35999171119E+01 0.37782961548E+01 0.39569271239E+01 0.40050739743E+01 0.38565642617E+01
 0.29535292065E+01 0.26452148823E+01 0.23982614451E+01 0.22732263134E+01 0.22987845428E+01
 0.24688398221E+01 0.27436632029E+01 0.30548296495E+01 0.33179266793E+01 0.34560787430E+01
 0.34329109100E+01 0.32799546207E+01 0.30903819632E+01 0.29746344575E+01 0.29997620051E+01
 0.31507203172E+01 0.33397266669E+01 0.34566291335E+01 0.34265345635E+01 0.32413111134E+01
 0.24956908674E+01 0.22844464337E+01 0.21619341179E+01 0.21626767242E+01 0.22857808427E+01
 0.24960264664E+01 0.27309659933E+01 0.29158430987E+01 0.29875086511E+01 0.29214689754E+01
 0.27484265710E+01 0.25484503708E+01 0.24166435437E+01 0.24166206580E+01 0.25481191239E+01
 0.27475687671E+01 0.29206756634E+01 0.29877370357E+01 0.29171139444E+01 0.27320207888E+01
 0.21673300034E+01 0.20500193550E+01 0.20333049481E+01 0.21216502474E+01 0.22856514402E+01
 0.24692440772E+01 0.26045902714E+01 0.26350027451E+01 0.25399011347E+01 0.23491822207E+01
 0.21357543972E+01 0.19861534199E+01 0.19625742746E+01 0.20747059144E+01 0.22757191105E+01
 0.24837983505E+01 0.26177357265E+01 0.26301285701E+01 0.25239401331E+01 0.23466099235E+01
 0.19725773084E+01 0.19418160889E+01 0.20049300079E+01 0.21392939802E+01 0.22948734229E+01
 0.24079355551E+01 0.24234463825E+01 0.23197324544E+01 0.21227649997E+01 0.18998441379E+01
 0.17333852239E+01 0.16867433923E+01 0.17778277640E+01 0.19717977586E+01 0.21955526474E+01
 0.23679068772E+01 0.24325822191E+01 0.23792321728E+01 0.22433114517E+01 0.20869490102E+01
 0.19093679191E+01 0.19544623904E+01 0.20728457308E+01 0.22198608198E+01 0.23339269608E+01
 0.23578696546E+01 0.22644899131E+01 0.20732041590E+01 0.18463463373E+01 0.16650260927E+01
 0.15960516520E+01 0.16650216119E+01 0.18462836561E+01 0.20731547375E+01 0.22646535613E+01
 0.23582794052E+01 0.23342450038E+01 0.22196570033E+01 0.20721290225E+01 0.19538038825E+01
 0.19734120703E+01 0.20874274437E+01 0.22430785783E+01 0.23786048875E+01 0.24321444705E+01
 0.23679068763E+01 0.21957778879E+01 0.19719498638E+01 0.17778481300E+01 0.16867401364E+01
 0.17334004867E+01 0.18998408825E+01 0.21227853667E+01 0.23198845609E+01 0.24236716244E+01
 0.24079355556E+01 0.22944356757E+01 0.21386666961E+01 0.20046971352E+01 0.19422945228E+01
 0.21673300027E+01 0.23459514146E+01 0.25232234233E+01 0.26299247519E+01 0.26180537677E+01
 0.24842080991E+01 0.22758827570E+01 0.20746564914E+01 0.19625115925E+01 0.19861489387E+01
 0.21357543973E+01 0.23491867020E+01 0.25399638167E+01 0.26350521677E+01 0.26044266243E+01
 0.24688343277E+01 0.22853333980E+01 0.21218540644E+01 0.20340216566E+01 0.20506778625E+01
 0.24948561041E+01 0.27315423535E+01 0.29173468159E+01 0.29883643188E+01 0.29211134098E+01
 0.27475687660E+01 0.25478938816E+01 0.24164685514E+01 0.24166231768E+01 0.25484536263E+01
 0.27484113083E+01 0.29214722313E+01 0.29874882848E+01 0.29156909929E+01 0.27307407520E+01
 0.24960264664E+01 0.22862185901E+01 0.21633040082E+01 0.21621669901E+01 0.22839679988E+01
 0.29535292052E+01 0.32419696201E+01 0.34272512708E+01 0.34568329492E+01 0.33394086234E+01
 0.31503105664E+01 0.29995983568E+01 0.29746838792E+01 0.30904446446E+01 0.32799591016E+01
 0.34329109101E+01 0.34560742621E+01 0.33178639977E+01 0.30547802273E+01 0.27438268503E+01
 0.24692495715E+01 0.22991025845E+01 0.22730224956E+01 0.23975447355E+01 0.26445563731E+01
 0.35360544189E+01 0.38570426943E+01 0.40048411001E+01 0.39562998381E+01 0.37778584060E+01
 0.35999171110E+01 0.35445116387E+01 0.36496467663E+01 0.38442870682E+01 0.39933411060E+01
 0.39796780853E+01 0.37662136453E+01 0.34037240519E+01 0.29934836998E+01 0.26368539449E+01
 0.24078370800E+01 0.23477727527E+01 0.24670433879E+01 0.27455747526E+01 0.31303459638E+01
 0.41880122814E+01 0.44565471145E+01 0.44704752368E+01 0.42830138714E+01 0.40518436783E+01
 0.39493245930E+01 0.40504292363E+01 0.42815013818E+01 0.44702415029E+01 0.44577744941E+01
 0.41896119509E+01 0.37299593379E+01 0.32095577989E+01 0.27579314587E+01 0.24602204767E+01
 0.23576247527E+01 0.24613983844E+01 0.27594672699E+01 0.32103167458E+01 0.37293075019E+01
 0.47157441329E+01 0.47620539465E+01 0.45238749502E+01 0.41923427409E+01 0.40080234257E+01
 0.41030253608E+01 0.44092064406E+01 0.47059254134E+01 0.47686631005E+01 0.45037110247E+01
 0.39800406762E+01 0.33619118065E+01 0.28140293702E+01 0.24426944046E+01 0.22905909096E+01
 0.23676768907E+01 0.26685871204E+01 0.31646830456E+01 0.37741832615E+01 0.43490752114E+01
 0.47769185077E+01 0.44349019606E+01 0.39432881640E+01 0.36259313530E+01 0.36946371820E+01
 0.41029708653E+01 0.45792255431E+01 0.48112837754E+01 0.46378648339E+01 0.41136488178E+01
 0.34334361420E+01 0.28043068671E+01 0.23619798187E+01 0.21577993141E+01 0.21989958105E+01
 0.24842624028E+01 0.29973147551E+01 0.36622605597E+01 0.43159351051E+01 0.47419705691E+01
 0.40790702847E+01 0.33795443331E+01 0.28749296391E+01 0.28758964119E+01 0.33812711830E+01
 0.40795020889E+01 0.45606004532E+01 0.45700344459E+01 0.41228462060E+01 0.34319644026E+01
 0.27487738975E+01 0.22453681832E+01 0.19904141769E+01 0.19906155363E+01 0.22454295874E+01
 0.27480125860E+01 0.34309346017E+01 0.41229100948E+01 0.45714701109E+01 0.45618920567E+01
 0.27256198503E+01 0.20042064788E+01 0.18867209817E+01 0.24419377517E+01 0.33462299287E+01
 0.41028400639E+01 0.43521061434E+01 0.40452808163E+01 0.33936170721E+01 0.26863355239E+01
 0.21356954887E+01 0.18333822860E+01 0.17906242027E+01 0.20057019872E+01 0.24781840240E+01
 0.31509087711E+01 0.38527339340E+01 0.43067358090E+01 0.42523469178E+01 0.36365361539E+01
 0.13511272356E+01 0.10797324104E+01 0.16082455132E+01 0.26382013349E+01 0.36206552285E+01
 0.41023800518E+01 0.39581309074E+01 0.33754115980E+01 0.26659778506E+01 0.20792640244E+01
 0.17329241243E+01 0.16473635471E+01 0.18190393829E+01 0.22511151731E+01 0.28985634738E+01
 0.36002302355E+01 0.40705636905E+01 0.40136448285E+01 0.33305604794E+01 0.22686675898E+01
 0.79513997974E+00 0.11788572819E+01 0.21167683261E+01 0.31162655282E+01 0.37156599581E+01
 0.37309551714E+01 0.32852453138E+01 0.26562345371E+01 0.20948078827E+01 0.17370852736E+01
 0.16182597244E+01 0.17370726417E+01 0.20946789806E+01 0.26561349350E+01 0.32855731074E+01
 0.37317737457E+01 0.37162944557E+01 0.31158592221E+01 0.21153402053E+01 0.11775454313E+01
 0.13228383262E+01 0.21548962695E+01 0.31252434875E+01 0.37636556678E+01 0.38412855576E+01
 0.34373310175E+01 0.28119410934E+01 0.22240662863E+01 0.18268864932E+01 0.16677720861E+01
 0.17472153035E+01 0.20663988548E+01 0.26015795515E+01 0.32386534554E+01 0.37484405223E+01
 0.38532641462E+01 0.33933377655E+01 0.24901414937E+01 0.15543393858E+01 0.10768467526E+01
 0.25709361071E+01 0.34068581542E+01 0.39866170763E+01 0.40639958274E+01 0.36763983438E+01
 0.30515339703E+01 0.24402375738E+01 0.20049568980E+01 0.18049289270E+01 0.18449098677E+01
 0.21251621312E+01 0.26301196252E+01 0.32688413608E+01 0.38438756460E+01 0.40959931798E+01
 0.38433009406E+01 0.31393340282E+01 0.23124371384E+01 0.18081505220E+01 0.19147738330E+01
 0.38181515418E+01 0.42810741573E+01 0.43202533433E+01 0.39386379542E+01 0.33226135673E+01
 0.27010112150E+01 0.22365880400E+01 0.19984925036E+01 0.19984601594E+01 0.22368012113E+01
 0.27016894541E+01 0.33229923177E+01 0.39376774488E+01 0.43183353707E+01 0.42801911378E+01
 0.38197599734E+01 0.31727597170E+01 0.27090533041E+01 0.27075532879E+01 0.31697796886E+01
 0.44954082575E+01 0.44960845760E+01 0.41354703915E+01 0.35538514625E+01 0.29475264836E+01
 0.24718599891E+01 0.22039917134E+01 0.21653042929E+01 0.23579680514E+01 0.27699530920E+01
 0.33466058178E+01 0.39567032972E+01 0.44103111981E+01 0.45369480598E+01 0.42971876636E+01
 0.38445912160E+01 0.34635988438E+01 0.33991146036E+01 0.36935038157E+01 0.41569416149E+01
 0.44941620015E+01 0.41872547366E+01 0.36771949893E+01 0.31212630132E+01 0.26601369359E+01
 0.23761962585E+01 0.23030117365E+01 0.24477490139E+01 0.27969886798E+01 0.33032479261E+01
 0.38619295446E+01 0.43194284964E+01 0.45305337272E+01 0.44418381683E+01 0.41469667601E+01
 0.38538253440E+01 0.37633631889E+01 0.39378191840E+01 0.42579687258E+01 0.45035547387E+01
 0.40581017676E+01 0.36542196926E+01 0.31819796245E+01 0.27624808780E+01 0.24802560101E+01
 0.23809143047E+01 0.24789523867E+01 0.27612972015E+01 0.31822327266E+01 0.36557655836E+01
 0.40595674428E+01 0.42767306360E+01 0.42566548510E+01 0.40575424673E+01 0.38294224020E+01
 0.37311659411E+01 0.38304933906E+01 0.40591509394E+01 0.42578168933E+01 0.42765545298E+01
 0.34889374211E+01 0.31225184860E+01 0.27649322051E+01 0.25007203487E+01 0.23858879628E+01
 0.24431394727E+01 0.26615476861E+01 0.29964848785E+01 0.33717979571E+01 0.36905300550E+01
 0.38615800017E+01 0.38448842482E+01 0.36821243941E+01 0.34859578038E+01 0.33823924926E+01
 0.34370523386E+01 0.36149125124E+01 0.38023774944E+01 0.38753331552E+01 0.37659411453E+01
 0.29663473743E+01 0.26810236632E+01 0.24470648888E+01 0.23268768484E+01 0.23511849656E+01
 0.25137528733E+01 0.27726923511E+01 0.30581358829E+01 0.32881340175E+01 0.33934462925E+01
 0.33461560436E+01 0.31817407419E+01 0.29906405679E+01 0.28764605029E+01 0.29012332364E+01
 0.30510101628E+01 0.32441964239E+01 0.33765803336E+01 0.33739121913E+01 0.32225676757E+01
 0.25450550054E+01 0.23467237481E+01 0.22297929170E+01 0.22302244920E+01 0.23473943103E+01
 0.25449139340E+01 0.27596768353E+01 0.29191919963E+01 0.29659216583E+01 0.28819363881E+01
 0.27014187178E+01 0.25020538898E+01 0.23730054848E+01 0.23730204330E+01 0.25018178400E+01
 0.27006278749E+01 0.28810361010E+01 0.29658180582E+01 0.29201108734E+01 0.27607189297E+01
 0.22386934590E+01 0.21281124582E+01 0.21122380510E+01 0.21957624334E+01 0.23485687880E+01
 0.25145588144E+01 0.26284575468E+01 0.26387945006E+01 0.25304460622E+01 0.23357065745E+01
 0.21252149751E+01 0.19800337562E+01 0.19573147405E+01 0.20658264280E+01 0.22626374862E+01
 0.24718193734E+01 0.26159383709E+01 0.26467756106E+01 0.25624343026E+01 0.24045571083E+01
 0.20564079033E+01 0.20277389800E+01 0.20869764338E+01 0.22110179099E+01 0.23501031127E+01
 0.24432159135E+01 0.24404613757E+01 0.23254117596E+01 0.21262813846E+01 0.19080551708E+01
 0.17475880921E+01 0.17029111016E+01 0.17902740082E+01 0.19779585373E+01 0.21987741618E+01
 0.23764003461E+01 0.24552833558E+01 0.24213811632E+01 0.23045497003E+01 0.21626086463E+01
 0.19978738246E+01 0.20401280299E+01 0.21489161640E+01 0.22800145717E+01 0.23745489016E+01
 0.23803053472E+01 0.22752757156E+01 0.20814282073E+01 0.18593035754E+01 0.16847141252E+01
 0.16188009404E+01 0.16847014938E+01 0.18591746742E+01 0.20813286064E+01 0.22756035108E+01
 0.23811239231E+01 0.23751834007E+01 0.22796082669E+01 0.21474880440E+01 0.20388161797E+01
 0.20580707614E+01 0.21635617607E+01 0.23040856750E+01 0.24201306823E+01 0.24544100428E+01
 0.23764003451E+01 0.21992253311E+01 0.19782650789E+01 0.17903158904E+01 0.17029019239E+01
 0.17476138007E+01 0.19080459937E+01 0.21263232678E+01 0.23257183025E+01 0.24409125465E+01
 0.24432159141E+01 0.23492298012E+01 0.22097674303E+01 0.20865124094E+01 0.20286920949E+01
 0.22386934581E+01 0.24032452568E+01 0.25610061809E+01 0.26463693038E+01 0.26165728680E+01
 0.24726379473E+01 0.22629652795E+01 0.20657268257E+01 0.19571858384E+01 0.19800211243E+01
 0.21252149752E+01 0.23357192064E+01 0.25305749643E+01 0.26388941027E+01 0.26281297529E+01
 0.25137402397E+01 0.23479342898E+01 0.21961687388E+01 0.21136661711E+01 0.21294243081E+01
 0.25433921457E+01 0.27597658132E+01 0.29205748965E+01 0.29670685367E+01 0.28819094117E+01
 0.27006278738E+01 0.25013666689E+01 0.23727138901E+01 0.23729636018E+01 0.25020630671E+01
 0.27013930093E+01 0.28819455658E+01 0.29658797759E+01 0.29188854544E+01 0.27592256653E+01
 0.25449139339E+01 0.23482676220E+01 0.22314749714E+01 0.22302569408E+01 0.23457706319E+01
 0.29663473729E+01 0.32238795247E+01 0.33753403103E+01 0.33769866377E+01 0.32435619244E+01
 0.30501915867E+01 0.29009054413E+01 0.28765601040E+01 0.29907694693E+01 0.31817533734E+01
 0.33461560436E+01 0.33934336609E+01 0.32880051159E+01 0.30580362814E+01 0.27730201452E+01
 0.25145714480E+01 0.23518194633E+01 0.23264705420E+01 0.24456367673E+01 0.26797118114E+01
 0.34906002781E+01 0.37668942589E+01 0.38748691292E+01 0.38011270131E+01 0.36140391993E+01
 0.34370523377E+01 0.33828436621E+01 0.34862643456E+01 0.36821662766E+01 0.38448750706E+01
 0.38616057102E+01 0.36905208775E+01 0.33718398397E+01 0.29967914205E+01 0.26619988558E+01
 0.24431394721E+01 0.23850146499E+01 0.24994698677E+01 0.27644681793E+01 0.31234715997E+01
 0.40581017660E+01 0.42752426779E+01 0.42563887715E+01 0.40587446326E+01 0.38311278879E+01
 0.37319845154E+01 0.38297501958E+01 0.40574428654E+01 0.42565259491E+01 0.42767180042E+01
 0.40595674428E+01 0.36557782151E+01 0.31823616281E+01 0.27613968026E+01 0.24786245917E+01
 0.23800957288E+01 0.24796215108E+01 0.27628871822E+01 0.31834077435E+01 0.36555315415E+01
 0.44924991415E+01 0.45026016222E+01 0.42584327491E+01 0.39390696629E+01 0.37642365001E+01
 0.38538253435E+01 0.41465155896E+01 0.44415316259E+01 0.45304918445E+01 0.43194376738E+01
 0.38619038359E+01 0.33032571034E+01 0.27969467968E+01 0.24474424710E+01 0.23025605655E+01
 0.23761962575E+01 0.26610102466E+01 0.31225134917E+01 0.36776590122E+01 0.41863016199E+01
 0.44954082562E+01 0.41582534642E+01 0.36949319352E+01 0.33995209085E+01 0.34629643450E+01
 0.38437726408E+01 0.42968598692E+01 0.45370476614E+01 0.44104400998E+01 0.39567159289E+01
 0.33466058177E+01 0.27699404600E+01 0.23578391492E+01 0.21652046906E+01 0.22043195068E+01
 0.24726785629E+01 0.29481609806E+01 0.35534451555E+01 0.41340422696E+01 0.44947727242E+01
 0.38198143992E+01 0.31707328029E+01 0.27070892628E+01 0.27078028238E+01 0.31718864048E+01
 0.38197599734E+01 0.42806423081E+01 0.43186419131E+01 0.39377193316E+01 0.33229831403E+01
 0.27017151625E+01 0.22367920335E+01 0.19985020416E+01 0.19987990451E+01 0.22370392092E+01
 0.27010112139E+01 0.33217402541E+01 0.39373874730E+01 0.43197893176E+01 0.42820272713E+01
 0.25709361064E+01 0.19134619821E+01 0.18067224012E+01 0.23120308327E+01 0.31399685266E+01
 0.38441195158E+01 0.40963209744E+01 0.38437760447E+01 0.32687124593E+01 0.26301069936E+01
 0.21251621311E+01 0.18449224991E+01 0.18050578282E+01 0.20050564989E+01 0.24399097785E+01
 0.30507153943E+01 0.36757638445E+01 0.40644021318E+01 0.39880451958E+01 0.34081700038E+01
 0.13211754674E+01 0.10758936373E+01 0.15548034103E+01 0.24913919739E+01 0.33942110778E+01
 0.38532641467E+01 0.37479893526E+01 0.32383469136E+01 0.26015376691E+01 0.20664080324E+01
 0.17471895949E+01 0.16677812633E+01 0.18268446100E+01 0.22237597434E+01 0.28114899224E+01
 0.34373310166E+01 0.38421588687E+01 0.37649061469E+01 0.31257075112E+01 0.21539431538E+01
 0.86174477678E+00 0.11878516286E+01 0.19883145747E+01 0.28528307625E+01 0.33911646874E+01
 0.34381067286E+01 0.30843027251E+01 0.25574137736E+01 0.20738221046E+01 0.17599099730E+01
 0.16541501422E+01 0.17598837795E+01 0.20736239473E+01 0.25572646889E+01 0.30847893061E+01
 0.34393174023E+01 0.33921013381E+01 0.28522316082E+01 0.19862098917E+01 0.11859189094E+01
 0.13104249383E+01 0.20209601822E+01 0.28603166834E+01 0.34318853528E+01 0.35331944235E+01
 0.32173470609E+01 0.26958232614E+01 0.21905516066E+01 0.18423002622E+01 0.17005887763E+01
 0.17715372808E+01 0.20529711884E+01 0.25164409927E+01 0.30540042754E+01 0.34652175947E+01
 0.35200020358E+01 0.30963384990E+01 0.23087636206E+01 0.15071299810E+01 0.11011764675E+01
 0.23791713858E+01 0.31074805126E+01 0.36321569591E+01 0.37361184197E+01 0.34368246136E+01
 0.29173710384E+01 0.23919546466E+01 0.20093531777E+01 0.18303781180E+01 0.18663722144E+01
 0.21157804690E+01 0.25565175102E+01 0.31002246077E+01 0.35708044105E+01 0.37509145590E+01
 0.34986352364E+01 0.28726002762E+01 0.21563884610E+01 0.17241218652E+01 0.18153747889E+01
 0.34731707834E+01 0.39033577549E+01 0.39785340361E+01 0.36868176820E+01 0.31760463047E+01
 0.26413511320E+01 0.22316895967E+01 0.20173123820E+01 0.20172974608E+01 0.22318981191E+01
 0.26419115955E+01 0.31762069876E+01 0.36856770939E+01 0.39766127357E+01 0.39026601267E+01
 0.34750415587E+01 0.29023313483E+01 0.24984164609E+01 0.24968408513E+01 0.28991443834E+01
 0.41135469685E+01 0.41595172619E+01 0.38882440023E+01 0.34082038278E+01 0.28864825421E+01
 0.24653538905E+01 0.22227102766E+01 0.21874038529E+01 0.23629579513E+01 0.27307839820E+01
 0.32318529758E+01 0.37432658619E+01 0.40996758695E+01 0.41640005638E+01 0.39168815518E+01
 0.35002202496E+01 0.31595675984E+01 0.31021288857E+01 0.33638049398E+01 0.37848369345E+01
 0.41898740198E+01 0.39664597217E+01 0.35498998539E+01 0.30731247608E+01 0.26641681259E+01
 0.24057839614E+01 0.23384184138E+01 0.24716004227E+01 0.27871849396E+01 0.32313966014E+01
 0.37038186088E+01 0.40679470256E+01 0.42051102912E+01 0.40826432088E+01 0.37930650850E+01
 0.35204445721E+01 0.34375448928E+01 0.35974881896E+01 0.38987550863E+01 0.41506133809E+01
 0.38837141366E+01 0.35612957762E+01 0.31602555435E+01 0.27893122184E+01 0.25326439365E+01
 0.24409553271E+01 0.25314625386E+01 0.27884256417E+01 0.31608792813E+01 0.35629945923E+01
 0.38849332909E+01 0.40297485197E+01 0.39651788344E+01 0.37535554873E+01 0.35315460600E+01
 0.34382669188E+01 0.35323391694E+01 0.37549904627E+01 0.39665579315E+01 0.40300147452E+01
 0.34398377787E+01 0.31356512286E+01 0.28230229586E+01 0.25845882156E+01 0.24791612642E+01
 0.25317571846E+01 0.27303339084E+01 0.30270321499E+01 0.33451796019E+01 0.35957422461E+01
 0.37035419916E+01 0.36432416269E+01 0.34619565104E+01 0.32648867982E+01 0.31641633814E+01
 0.32171180006E+01 0.33932248747E+01 0.35921609153E+01 0.37003340551E+01 0.36487508452E+01
 0.30149129640E+01 0.27725059037E+01 0.25656132987E+01 0.24568965102E+01 0.24786209845E+01
 0.26245241122E+01 0.28513572226E+01 0.30898173299E+01 0.32639206697E+01 0.33162498196E+01
 0.32315085317E+01 0.30498923212E+01 0.28567182847E+01 0.27449575607E+01 0.27691254009E+01
 0.29169529628E+01 0.31162528712E+01 0.32722954334E+01 0.33128717458E+01 0.32168724040E+01
 0.26650724674E+01 0.24964797432E+01 0.23941456770E+01 0.23941889888E+01 0.24963488943E+01
 0.26644215437E+01 0.28373240997E+01 0.29487279373E+01 0.29509996540E+01 0.28358174368E+01