unknown system                          
   1.0000000000000000     
     1.854684    1.854684    0.000000
    -0.000000    3.709369   -0.000000
     0.000000   -0.000000    1.274037
   Be   H 
     1     1
Direct
 -0.000000  0.000000  0.000000
  0.000000  0.500000  0.500000

   20   24   20
 0.89983407050E+00 0.12971784024E+01 0.22396376047E+01 0.31659274446E+01 0.36008069697E+01
 0.34324726412E+01 0.28848207715E+01 0.22819500427E+01 0.18373770078E+01 0.15993977134E+01
 0.15286847453E+01 0.15993977134E+01 0.18373770078E+01 0.22819500427E+01 0.28848207715E+01
 0.34324726412E+01 0.36008069697E+01 0.31659274446E+01 0.22396376047E+01 0.12971784024E+01
 0.14406805794E+01 0.22646423874E+01 0.31621851194E+01 0.36431714143E+01 0.35365589644E+01
 0.30176624603E+01 0.24023753044E+01 0.19246424240E+01 0.16546033009E+01 0.15590182270E+01
 0.16060220683E+01 0.18137622994E+01 0.22232873826E+01 0.28081209312E+01 0.33891644976E+01
 0.36641129872E+01 0.33854015151E+01 0.25918820517E+01 0.16811379981E+01 0.11944279389E+01
 0.26514858415E+01 0.33829521391E+01 0.37902181100E+01 0.36841737308E+01 0.31876635388E+01
 0.25762883989E+01 0.20765221168E+01 0.17736415555E+01 0.16495646371E+01 0.16736140986E+01
 0.18533692500E+01 0.22231642863E+01 0.27755793331E+01 0.33772179914E+01 0.37708873143E+01
 0.37091614176E+01 0.31613432415E+01 0.24153837064E+01 0.19339683379E+01 0.20348697185E+01
 0.36957060363E+01 0.39704755797E+01 0.38323288646E+01 0.33586447926E+01 0.27727008690E+01
 0.22751735205E+01 0.19533255190E+01 0.18029504105E+01 0.18014368460E+01 0.19514975230E+01
 0.22769087442E+01 0.27765699663E+01 0.33590892283E+01 0.38275177239E+01 0.39658387273E+01
 0.36974339843E+01 0.31928565378E+01 0.27972038761E+01 0.27934663634E+01 0.31861903605E+01
 0.40532659921E+01 0.39001560905E+01 0.34844195184E+01 0.29640293044E+01 0.25002259690E+01
 0.21783563799E+01 0.20115454692E+01 0.19879111355E+01 0.21056180531E+01 0.23767891051E+01
 0.27998932185E+01 0.33155540014E+01 0.37833117353E+01 0.40344165270E+01 0.39817886710E+01
 0.37091461134E+01 0.34423855958E+01 0.33953890382E+01 0.36064780928E+01 0.39073546700E+01
 0.38232799560E+01 0.35083711583E+01 0.31057131297E+01 0.27259355595E+01 0.24384582246E+01
 0.22703967212E+01 0.22273492128E+01 0.23100663580E+01 0.25189224566E+01 0.28443239483E+01
 0.32459603117E+01 0.36345086955E+01 0.38926804013E+01 0.39449090872E+01 0.38233519020E+01
 0.36640958457E+01 0.36142974134E+01 0.37184927748E+01 0.38833204143E+01 0.39524043630E+01
 0.34191150175E+01 0.31697142010E+01 0.29142307963E+01 0.27042556977E+01 0.25689029183E+01
 0.25213388956E+01 0.25661009506E+01 0.27009589087E+01 0.29131543843E+01 0.31717452167E+01
 0.34225801920E+01 0.35965160864E+01 0.36451709068E+01 0.35806181374E+01 0.34789310713E+01
 0.34324688318E+01 0.34817341518E+01 0.35839101318E+01 0.36462343699E+01 0.35944729885E+01
 0.31535423314E+01 0.30528016159E+01 0.29538704866E+01 0.28828705228E+01 0.28544227529E+01
 0.28711900861E+01 0.29280207925E+01 0.30152729576E+01 0.31165326498E+01 0.32045266560E+01
 0.32459683853E+01 0.32186876442E+01 0.31339780960E+01 0.30392527217E+01 0.29910450838E+01
 0.30176758435E+01 0.31011466971E+01 0.31916198673E+01 0.32402548455E+01 0.32247486382E+01
 0.31233560742E+01 0.31694066498E+01 0.31983267583E+01 0.32119349414E+01 0.32096648739E+01
 0.31904180583E+01 0.31541199631E+01 0.31005806207E+01 0.30266135276E+01 0.29265711425E+01
 0.27999043029E+01 0.26608587957E+01 0.25407849587E+01 0.24766759130E+01 0.24905127690E+01
 0.25763088423E+01 0.27049360327E+01 0.28416764236E+01 0.29620560498E+01 0.30558207191E+01
 0.33195166247E+01 0.34749328676E+01 0.35636617093E+01 0.35644174546E+01 0.34767766224E+01
 0.33212516227E+01 0.31255638482E+01 0.29107860560E+01 0.26891662531E+01 0.24720180469E+01
 0.22769151705E+01 0.21269949814E+01 0.20443092804E+01 0.20428409416E+01 0.21240002146E+01
 0.22751866075E+01 0.24729824841E+01 0.26917077858E+01 0.29126110182E+01 0.31253668612E+01
 0.36768163335E+01 0.38513618002E+01 0.38808016304E+01 0.37550086620E+01 0.35061881930E+01
 0.31904233525E+01 0.28593133976E+01 0.25446018980E+01 0.22627548091E+01 0.20271629951E+01
 0.18533650351E+01 0.17554053918E+01 0.17411310010E+01 0.18113565559E+01 0.19607931053E+01
 0.21783561161E+01 0.24486139095E+01 0.27551995424E+01 0.30812310777E+01 0.34021321783E+01
 0.40353662082E+01 0.41033897026E+01 0.39676886362E+01 0.36680715888E+01 0.32787083879E+01
 0.28711935173E+01 0.24925491403E+01 0.21664370281E+01 0.19049062143E+01 0.17161678282E+01
 0.16060069636E+01 0.15779106977E+01 0.16336351435E+01 0.17720639711E+01 0.19873403030E+01
 0.22703893716E+01 0.26125291651E+01 0.30023300999E+01 0.34115600759E+01 0.37823364328E+01
 0.41879024088E+01 0.40748154491E+01 0.37706994393E+01 0.33588169839E+01 0.29241471884E+01
 0.25213350023E+01 0.21746950453E+01 0.18952653061E+01 0.16916286159E+01 0.15692212760E+01
 0.15286650482E+01 0.15692212760E+01 0.16916286159E+01 0.18952653061E+01 0.21746950453E+01
 0.25213350023E+01 0.29241471884E+01 0.33588169839E+01 0.37706994393E+01 0.40748154491E+01
 0.40353662083E+01 0.37823364329E+01 0.34115600759E+01 0.30023300999E+01 0.26125291651E+01
 0.22703893716E+01 0.19873403030E+01 0.17720639711E+01 0.16336351435E+01 0.15779106977E+01
 0.16060069636E+01 0.17161678282E+01 0.19049062143E+01 0.21664370280E+01 0.24925491403E+01
 0.28711935173E+01 0.32787083879E+01 0.36680715888E+01 0.39676886363E+01 0.41033897026E+01
 0.36768163335E+01 0.34021321783E+01 0.30812310778E+01 0.27551995424E+01 0.24486139095E+01
 0.21783561161E+01 0.19607931053E+01 0.18113565559E+01 0.17411310010E+01 0.17554053918E+01
 0.18533650351E+01 0.20271629951E+01 0.22627548091E+01 0.25446018979E+01 0.28593133976E+01
 0.31904233525E+01 0.35061881930E+01 0.37550086620E+01 0.38808016304E+01 0.38513618003E+01
 0.33195166248E+01 0.31253668613E+01 0.29126110182E+01 0.26917077858E+01 0.24729824841E+01
 0.22751866075E+01 0.21240002146E+01 0.20428409416E+01 0.20443092804E+01 0.21269949814E+01
 0.22769151705E+01 0.24720180469E+01 0.26891662531E+01 0.29107860560E+01 0.31255638482E+01
 0.33212516227E+01 0.34767766224E+01 0.35644174547E+01 0.35636617094E+01 0.34749328676E+01
 0.31233560742E+01 0.30558207191E+01 0.29620560498E+01 0.28416764236E+01 0.27049360327E+01
 0.25763088423E+01 0.24905127690E+01 0.24766759130E+01 0.25407849587E+01 0.26608587957E+01
 0.27999043029E+01 0.29265711425E+01 0.30266135276E+01 0.31005806207E+01 0.31541199631E+01
 0.31904180583E+01 0.32096648739E+01 0.32119349415E+01 0.31983267583E+01 0.31694066498E+01
 0.31535423314E+01 0.32247486382E+01 0.32402548455E+01 0.31916198673E+01 0.31011466971E+01
 0.30176758435E+01 0.29910450838E+01 0.30392527217E+01 0.31339780960E+01 0.32186876442E+01
 0.32459683853E+01 0.32045266560E+01 0.31165326498E+01 0.30152729576E+01 0.29280207925E+01
 0.28711900861E+01 0.28544227529E+01 0.28828705228E+01 0.29538704866E+01 0.30528016159E+01
 0.34191150175E+01 0.35944729885E+01 0.36462343699E+01 0.35839101318E+01 0.34817341518E+01
 0.34324688319E+01 0.34789310713E+01 0.35806181374E+01 0.36451709068E+01 0.35965160864E+01
 0.34225801920E+01 0.31717452167E+01 0.29131543843E+01 0.27009589087E+01 0.25661009506E+01
 0.25213388956E+01 0.25689029183E+01 0.27042556977E+01 0.29142307963E+01 0.31697142010E+01
 0.38232799560E+01 0.39524043630E+01 0.38833204144E+01 0.37184927748E+01 0.36142974134E+01
 0.36640958457E+01 0.38233519020E+01 0.39449090872E+01 0.38926804013E+01 0.36345086955E+01
 0.32459603117E+01 0.28443239483E+01 0.25189224566E+01 0.23100663580E+01 0.22273492128E+01
 0.22703967213E+01 0.24384582246E+01 0.27259355595E+01 0.31057131297E+01 0.35083711583E+01
 0.40532659921E+01 0.39073546700E+01 0.36064780929E+01 0.33953890382E+01 0.34423855958E+01
 0.37091461134E+01 0.39817886710E+01 0.40344165270E+01 0.37833117353E+01 0.33155540014E+01
 0.27998932185E+01 0.23767891051E+01 0.21056180531E+01 0.19879111355E+01 0.20115454692E+01
 0.21783563800E+01 0.25002259690E+01 0.29640293044E+01 0.34844195184E+01 0.39001560906E+01
 0.36957060363E+01 0.31861903605E+01 0.27934663634E+01 0.27972038761E+01 0.31928565378E+01
 0.36974339843E+01 0.39658387273E+01 0.38275177239E+01 0.33590892283E+01 0.27765699663E+01
 0.22769087442E+01 0.19514975230E+01 0.18014368460E+01 0.18029504105E+01 0.19533255190E+01
 0.22751735205E+01 0.27727008690E+01 0.33586447927E+01 0.38323288646E+01 0.39704755797E+01
 0.26514858415E+01 0.20348697185E+01 0.19339683379E+01 0.24153837064E+01 0.31613432415E+01
 0.37091614176E+01 0.37708873143E+01 0.33772179914E+01 0.27755793331E+01 0.22231642863E+01
 0.18533692500E+01 0.16736140986E+01 0.16495646371E+01 0.17736415555E+01 0.20765221168E+01
 0.25762883989E+01 0.31876635388E+01 0.36841737308E+01 0.37902181100E+01 0.33829521391E+01
 0.14406805793E+01 0.11944279389E+01 0.16811379981E+01 0.25918820517E+01 0.33854015151E+01
 0.36641129872E+01 0.33891644976E+01 0.28081209312E+01 0.22232873826E+01 0.18137622994E+01
 0.16060220683E+01 0.15590182270E+01 0.16546033009E+01 0.19246424240E+01 0.24023753044E+01
 0.30176624603E+01 0.35365589644E+01 0.36431714143E+01 0.31621851194E+01 0.22646423873E+01
 0.89453344822E+00 0.12913772342E+01 0.22321020895E+01 0.31574393888E+01 0.35937209709E+01
 0.34288282712E+01 0.28847891870E+01 0.22839519042E+01 0.18395245681E+01 0.16007297504E+01
 0.15295660912E+01 0.16007218012E+01 0.18394438554E+01 0.22838895617E+01 0.28849943361E+01
 0.34293405479E+01 0.35941180392E+01 0.31571851270E+01 0.22312083941E+01 0.12905563023E+01
 0.14346493475E+01 0.22567341428E+01 0.31530679709E+01 0.36352955683E+01 0.35321536858E+01
 0.30170374235E+01 0.24039807209E+01 0.19265315185E+01 0.16556922053E+01 0.15595318974E+01
 0.16068454289E+01 0.18153899434E+01 0.22250985608E+01 0.28085358049E+01 0.33864080869E+01
 0.36575470058E+01 0.33763351734E+01 0.25828460556E+01 0.16739609110E+01 0.11887958014E+01
 0.26425872461E+01 0.33730154349E+01 0.37815499644E+01 0.36789482707E+01 0.31862161623E+01
 0.25770990666E+01 0.20776280699E+01 0.17739030149E+01 0.16491372692E+01 0.16733748576E+01
 0.18539429276E+01 0.22241815713E+01 0.27756503597E+01 0.33745771389E+01 0.37645735473E+01
 0.37000059054E+01 0.31515824962E+01 0.24069393735E+01 0.19268966101E+01 0.20275709974E+01
 0.36854853168E+01 0.39617358459E+01 0.38268036858E+01 0.33564796528E+01 0.27725276710E+01
 0.22752989099E+01 0.19527240635E+01 0.18016754664E+01 0.18002130427E+01 0.19509786281E+01
 0.22769974585E+01 0.27761541120E+01 0.33565688465E+01 0.38217741064E+01 0.39572412516E+01
 0.36877058867E+01 0.31836820107E+01 0.27888534545E+01 0.27848744807E+01 0.31764617665E+01
 0.40453943120E+01 0.38950384866E+01 0.34820541326E+01 0.29632856258E+01 0.24998169359E+01
 0.21775325641E+01 0.20103227439E+01 0.19867269501E+01 0.21048931032E+01 0.23765194232E+01
 0.27993425309E+01 0.33134846058E+01 0.37786848931E+01 0.40272243274E+01 0.39731883919E+01
 0.37005025200E+01 0.34341259480E+01 0.33869156828E+01 0.35972678195E+01 0.38980239427E+01
 0.38192072878E+01 0.35062534087E+01 0.31050705982E+01 0.27261348466E+01 0.24390231480E+01
 0.22711240844E+01 0.22281764953E+01 0.23109626423E+01 0.25197389773E+01 0.28445817956E+01
 0.32448496577E+01 0.36313920893E+01 0.38875564397E+01 0.39385294726E+01 0.38166675960E+01
 0.36575295535E+01 0.36076315845E+01 0.37114962622E+01 0.38763912598E+01 0.39464961565E+01
 0.34178258329E+01 0.31700292405E+01 0.29164017115E+01 0.27082651104E+01 0.25742477892E+01
 0.25271176123E+01 0.25713959609E+01 0.27051185071E+01 0.29157495046E+01 0.31724334006E+01
 0.34212340433E+01 0.35935253078E+01 0.36413334951E+01 0.35767099403E+01 0.34752477606E+01
 0.34288245547E+01 0.34779095133E+01 0.35800447352E+01 0.36427866600E+01 0.35919225480E+01
 0.31556885321E+01 0.30584709745E+01 0.29634512391E+01 0.28955438117E+01 0.28683538041E+01
 0.28842494143E+01 0.29385315751E+01 0.30223744131E+01 0.31201626821E+01 0.32052603390E+01
 0.32448413849E+01 0.32169226556E+01 0.31324948547E+01 0.30383670396E+01 0.29905171656E+01
 0.30170511775E+01 0.31001170390E+01 0.31902226581E+01 0.32389636397E+01 0.32245286638E+01
 0.31333129752E+01 0.31860833531E+01 0.32205968697E+01 0.32368800789E+01 0.32336526566E+01
 0.32103362768E+01 0.31682023203E+01 0.31086529214E+01 0.30298549708E+01 0.29269315666E+01
 0.27993532841E+01 0.26607666255E+01 0.25416195089E+01 0.24781532483E+01 0.24919793180E+01
 0.25771196001E+01 0.27048211155E+01 0.28411568939E+01 0.29626973365E+01 0.30599899049E+01
 0.33431726365E+01 0.35073423660E+01 0.36010938224E+01 0.36015374586E+01 0.35084976322E+01
 0.33443589301E+01 0.31394354878E+01 0.29170716602E+01 0.26907560175E+01 0.24718370502E+01
 0.22770199852E+01 0.21282191115E+01 0.20464230909E+01 0.20450078456E+01 0.21253303288E+01
 0.22753113255E+01 0.24726017977E+01 0.26929049829E+01 0.29185718564E+01 0.31393119249E+01
 0.37177168505E+01 0.39001335713E+01 0.39307874052E+01 0.37990755900E+01 0.35392195959E+01
 0.32108539701E+01 0.28689996975E+01 0.25473417493E+01 0.22624700258E+01 0.20266588186E+01
 0.18539394577E+01 0.17570488520E+01 0.17429951005E+01 0.18123832492E+01 0.19604870420E+01
 0.21775309457E+01 0.24497588474E+01 0.27621308108E+01 0.30979468176E+01 0.34311632830E+01
 0.40918123703E+01 0.41630213796E+01 0.40217238347E+01 0.37096476231E+01 0.33051711672E+01
 0.28842526621E+01 0.24965499229E+01 0.21660830924E+01 0.19036842386E+01 0.17158395233E+01
 0.16068156652E+01 0.15790936396E+01 0.16341140689E+01 0.17712836486E+01 0.19860623841E+01
 0.22711153082E+01 0.26192805302E+01 0.30196651617E+01 0.34429105684E+01 0.38281227119E+01
 0.42514132033E+01 0.41339084352E+01 0.38172213426E+01 0.33891430544E+01 0.29396805227E+01
 0.25266005711E+01 0.21747196090E+01 0.18938428420E+01 0.16908253866E+01 0.15695630792E+01
 0.15295480208E+01 0.15695551301E+01 0.16907446739E+01 0.18937804994E+01 0.21749247580E+01
 0.25271128477E+01 0.29400775909E+01 0.33888887926E+01 0.38163276472E+01 0.41330875033E+01
 0.40928529552E+01 0.38287191539E+01 0.34426201892E+01 0.30188826244E+01 0.26187340127E+01
 0.22711153082E+01 0.19863447476E+01 0.17714755193E+01 0.16341402940E+01 0.15790878642E+01
 0.16068316967E+01 0.17158337479E+01 0.19037104637E+01 0.21662749631E+01 0.24968322863E+01
 0.28842526621E+01 0.33046246497E+01 0.37088650858E+01 0.40214334555E+01 0.41636178216E+01
 0.37177168506E+01 0.34303423512E+01 0.30970531223E+01 0.27618765491E+01 0.24501559156E+01
 0.21780432224E+01 0.19606921911E+01 0.18123209066E+01 0.17429143878E+01 0.17570409029E+01
 0.18539394577E+01 0.20266667677E+01 0.22625507385E+01 0.25474040919E+01 0.28687945485E+01
 0.32103416935E+01 0.35388225276E+01 0.37993298518E+01 0.39316811006E+01 0.39009545032E+01
 0.33421320517E+01 0.31387154830E+01 0.29188622357E+01 0.26936875202E+01 0.24731483153E+01
 0.22753113255E+01 0.21250479654E+01 0.20448159748E+01 0.20463968657E+01 0.21282248869E+01
 0.22770039536E+01 0.24718428256E+01 0.26907297924E+01 0.29168797894E+01 0.31391531244E+01
 0.33443589301E+01 0.35090441498E+01 0.36023199960E+01 0.36013842017E+01 0.35067459242E+01
 0.31333129752E+01 0.30608108368E+01 0.29635910319E+01 0.28414111557E+01 0.27044240473E+01
 0.25766073234E+01 0.24917741690E+01 0.24782155909E+01 0.25417002216E+01 0.26607745746E+01
 0.27993532841E+01 0.29269236174E+01 0.30297742581E+01 0.31085905788E+01 0.31684074694E+01
 0.32108485535E+01 0.32340497248E+01 0.32366258171E+01 0.32197031744E+01 0.31852624213E+01
 0.31567291169E+01 0.32251251057E+01 0.32386732604E+01 0.31894401208E+01 0.30995705215E+01
 0.30170511775E+01 0.29907995290E+01 0.30385589104E+01 0.31325210799E+01 0.32169168802E+01
 0.32448574164E+01 0.32052545636E+01 0.31201889072E+01 0.30225662839E+01 0.29388139386E+01
 0.28842494143E+01 0.28678072866E+01 0.28947612744E+01 0.29631608598E+01 0.30590674164E+01
 0.34178258329E+01 0.35911016161E+01 0.36418929646E+01 0.35797904735E+01 0.34783065815E+01
 0.34293368314E+01 0.34754529096E+01 0.35766475977E+01 0.36412527824E+01 0.35935173586E+01
 0.34212340433E+01 0.31724413497E+01 0.29158302173E+01 0.27051808497E+01 0.25711908118E+01
 0.25266053357E+01 0.25738507210E+01 0.27085193722E+01 0.29172954069E+01 0.31708501723E+01
 0.38181667030E+01 0.39458997146E+01 0.38766816390E+01 0.37122787995E+01 0.36081781020E+01
 0.36575295536E+01 0.38163852325E+01 0.39383376018E+01 0.38875302145E+01 0.36313978647E+01
 0.32448336262E+01 0.28445875710E+01 0.25197127522E+01 0.23107707715E+01 0.22278941319E+01
 0.22711240844E+01 0.24395696656E+01 0.27269173839E+01 0.31053609774E+01 0.35056569668E+01
 0.40453943120E+01 0.38988448746E+01 0.35981615149E+01 0.33871699445E+01 0.34337288798E+01
 0.36999902433E+01 0.39729832428E+01 0.40272866700E+01 0.37787656058E+01 0.33134925550E+01
 0.27993425309E+01 0.23765114741E+01 0.21048123905E+01 0.19866646075E+01 0.20105278930E+01
 0.21780448407E+01 0.25002140041E+01 0.29630313640E+01 0.34811604372E+01 0.38942175547E+01
 0.36865259016E+01 0.31770582084E+01 0.27845841015E+01 0.27880709172E+01 0.31831354931E+01
 0.36877058867E+01 0.39575236150E+01 0.38219659772E+01 0.33565950716E+01 0.27761483367E+01
 0.22770134900E+01 0.19509728527E+01 0.18002392679E+01 0.18018673371E+01 0.19530064270E+01
 0.22752989099E+01 0.27719811534E+01 0.33556971155E+01 0.38265133066E+01 0.39623322878E+01
 0.26425872461E+01 0.20267500655E+01 0.19260029147E+01 0.24066851117E+01 0.31519795644E+01
 0.37005181820E+01 0.37647786964E+01 0.33745147963E+01 0.27755696470E+01 0.22241736221E+01
 0.18539429276E+01 0.16733828068E+01 0.16492179819E+01 0.17739653575E+01 0.20774229209E+01
 0.25765867900E+01 0.31858190941E+01 0.36792025324E+01 0.37824436598E+01 0.33738363668E+01
 0.14336087627E+01 0.11881993595E+01 0.16742512903E+01 0.25836285929E+01 0.33768816910E+01
 0.36575470058E+01 0.33861257234E+01 0.28083439341E+01 0.22250723356E+01 0.18153957188E+01
 0.16068293973E+01 0.15595376728E+01 0.16556659802E+01 0.19263396477E+01 0.24036983574E+01
 0.30170374235E+01 0.35327002033E+01 0.36360781056E+01 0.31533583502E+01 0.22561377009E+01
 0.88105499099E+00 0.12754668398E+01 0.22106042019E+01 0.31332212243E+01 0.35737334558E+01
 0.34186675218E+01 0.28847239628E+01 0.22895575815E+01 0.18456103180E+01 0.16045761358E+01
 0.15321350913E+01 0.16045601784E+01 0.18454500231E+01 0.22894338708E+01 0.28851309519E+01
 0.34196837007E+01 0.35745210567E+01 0.31327169018E+01 0.22088316096E+01 0.12738385852E+01
 0.14177946102E+01 0.22344308104E+01 0.31275573235E+01 0.36133879894E+01 0.35198053043E+01
 0.30150337043E+01 0.24082062699E+01 0.19317511755E+01 0.16588153804E+01 0.15610484215E+01
 0.16092225202E+01 0.18200636136E+01 0.22301935957E+01 0.28093688982E+01 0.33780069391E+01
 0.36385789406E+01 0.33510395255E+01 0.25583961573E+01 0.16549260976E+01 0.11736415428E+01
 0.26177674611E+01 0.33454909813E+01 0.37573484081E+01 0.36638652971E+01 0.31813956914E+01
 0.25787736717E+01 0.20805624530E+01 0.17747301476E+01 0.16480298409E+01 0.16727327996E+01
 0.18555875155E+01 0.22270103699E+01 0.27755674686E+01 0.33666338599E+01 0.37463627169E+01
 0.36741513338E+01 0.31243065020E+01 0.23833088536E+01 0.19069045240E+01 0.20069461488E+01
 0.36571067280E+01 0.39368820852E+01 0.38102307846E+01 0.33491588281E+01 0.27713098378E+01
 0.22756141675E+01 0.19513161864E+01 0.17982942294E+01 0.17968211240E+01 0.19495312540E+01
 0.22772150539E+01 0.27747457652E+01 0.33489973183E+01 0.38050423560E+01 0.39325069304E+01
 0.36597517104E+01 0.31571812633E+01 0.27647711735E+01 0.27605720760E+01 0.31494657349E+01
 0.40223346575E+01 0.38790663546E+01 0.34740357896E+01 0.29607345630E+01 0.24990423698E+01
 0.21758158738E+01 0.20072504714E+01 0.19835265330E+01 0.21029359313E+01 0.23758107279E+01
 0.27976477977E+01 0.33072232181E+01 0.37650018716E+01 0.40061502125E+01 0.39479813599E+01
 0.36751511586E+01 0.34102132438E+01 0.33630443370E+01 0.35717071705E+01 0.38717669627E+01
 0.38060439057E+01 0.34992896723E+01 0.31034397721E+01 0.27276421811E+01 0.24415665838E+01
 0.22737557569E+01 0.22308700126E+01 0.23138708468E+01 0.25224048298E+01 0.28454340166E+01
 0.32414788602E+01 0.36220521494E+01 0.38723152033E+01 0.39195761863E+01 0.37969218655E+01
 0.36385609508E+01 0.35889451023E+01 0.36919748104E+01 0.38564074930E+01 0.39284691495E+01
 0.34139530698E+01 0.31718496576E+01 0.29239644761E+01 0.27208359409E+01 0.25902910614E+01
 0.25443982958E+01 0.25874896381E+01 0.27179539495E+01 0.29237675387E+01 0.31745487752E+01
 0.34171824972E+01 0.35845418579E+01 0.36298033229E+01 0.35650767024E+01 0.34646340330E+01
 0.34186641173E+01 0.34670587169E+01 0.35683385256E+01 0.36316030663E+01 0.35834448134E+01
 0.31632464431E+01 0.30762158788E+01 0.29921273216E+01 0.29330914311E+01 0.29099561752E+01
 0.29237608379E+01 0.29706045918E+01 0.30440414001E+01 0.31311774438E+01 0.32074960296E+01
 0.32414541311E+01 0.32115431934E+01 0.31279599304E+01 0.30357800503E+01 0.29890909034E+01
 0.30150482321E+01 0.30963581132E+01 0.31851559887E+01 0.32347631394E+01 0.32244935502E+01
 0.31633134261E+01 0.32354458055E+01 0.32867277774E+01 0.33117272796E+01 0.33062728082E+01
 0.32708068301E+01 0.32108053594E+01 0.31329398381E+01 0.30396192861E+01 0.29280715399E+01
 0.27976575365E+01 0.26603259802E+01 0.25439368654E+01 0.24823363767E+01 0.24958681358E+01
 0.25787941365E+01 0.27039493253E+01 0.28398602656E+01 0.29656161127E+01 0.30734494782E+01
 0.34132422936E+01 0.36041624102E+01 0.37139269106E+01 0.37139284425E+01 0.36043999327E+01
 0.34138276272E+01 0.31809304683E+01 0.29359459230E+01 0.26957040208E+01 0.24714022629E+01
 0.22772531957E+01 0.21316750373E+01 0.20524268918E+01 0.20510071536E+01 0.21288204343E+01
 0.22756246363E+01 0.24721114668E+01 0.26974851518E+01 0.29369535966E+01 0.31807105665E+01
 0.38406499036E+01 0.40475866285E+01 0.40819653015E+01 0.39317794524E+01 0.36380919751E+01
 0.32718287058E+01 0.28981428695E+01 0.25559727098E+01 0.22619836224E+01 0.20252707421E+01
 0.18555860344E+01 0.17617650485E+01 0.17482804800E+01 0.18152720737E+01 0.19598280249E+01
 0.21758107300E+01 0.24539314721E+01 0.27829793032E+01 0.31474152230E+01 0.35176095127E+01
 0.42625837205E+01 0.43429431689E+01 0.41838870593E+01 0.38338316620E+01 0.33842409079E+01
 0.29237636107E+01 0.25092789336E+01 0.21656496290E+01 0.19003324983E+01 0.17149301519E+01
 0.16091809895E+01 0.15825163768E+01 0.16355427641E+01 0.17692833302E+01 0.19828567974E+01
 0.22737433884E+01 0.26393986343E+01 0.30711782635E+01 0.35368947454E+01 0.39663574690E+01
 0.44424412668E+01 0.43107644891E+01 0.39561763282E+01 0.34801180315E+01 0.29870202737E+01
 0.25433751795E+01 0.21754886288E+01 0.18898829969E+01 0.16885031063E+01 0.15705731415E+01
 0.15321214946E+01 0.15705571842E+01 0.16883428114E+01 0.18897592862E+01 0.21758956179E+01
 0.25443913584E+01 0.29878078746E+01 0.34796137090E+01 0.39544037359E+01 0.43091362345E+01
 0.42646476337E+01 0.39675404652E+01 0.35363187953E+01 0.30696261187E+01 0.26383145948E+01
 0.22737433884E+01 0.19834169698E+01 0.17696640725E+01 0.16355948471E+01 0.15825047831E+01
 0.16092125449E+01 0.17149185582E+01 0.19003845813E+01 0.21660303713E+01 0.25098391060E+01
 0.29237636107E+01 0.33831568683E+01 0.38322795172E+01 0.41833111092E+01 0.43441261651E+01
 0.38406499036E+01 0.35159812581E+01 0.31456426308E+01 0.27824749808E+01 0.24547190730E+01
 0.21768269089E+01 0.19602350140E+01 0.18151483631E+01 0.17481201851E+01 0.17617490911E+01
 0.18555860344E+01 0.20252866995E+01 0.22621439173E+01 0.25560964204E+01 0.28977358804E+01
 0.32708125269E+01 0.36373043743E+01 0.39322837748E+01 0.40837378937E+01 0.40492148831E+01
 0.34111783804E+01 0.31795275702E+01 0.29375295468E+01 0.26990372967E+01 0.24731955064E+01
 0.22756246363E+01 0.21282602619E+01 0.20506264113E+01 0.20523748088E+01 0.21316866310E+01
 0.22772216403E+01 0.24714138566E+01 0.26956519378E+01 0.29355651807E+01 0.31803702959E+01
 0.34138276272E+01 0.36054839723E+01 0.37154805873E+01 0.37145028607E+01 0.36029794139E+01
 0.31633134261E+01 0.30750777329E+01 0.29673887049E+01 0.28403645880E+01 0.27031617244E+01
 0.25777779576E+01 0.24954611468E+01 0.24824600873E+01 0.25440971604E+01 0.26603419375E+01
 0.27976575365E+01 0.29280555826E+01 0.30394589912E+01 0.31328161274E+01 0.32112123485E+01
 0.32718230090E+01 0.33070604091E+01 0.33112229572E+01 0.32849551852E+01 0.32338175509E+01
 0.31653103563E+01 0.32256765465E+01 0.32341871893E+01 0.31836038439E+01 0.30952740737E+01
 0.30150482322E+01 0.29896510758E+01 0.30361607927E+01 0.31280120134E+01 0.32115315997E+01
 0.32414856865E+01 0.32074844359E+01 0.31312295268E+01 0.30444221425E+01 0.29711647642E+01
 0.29237608379E+01 0.29088721356E+01 0.29315392863E+01 0.29915513715E+01 0.30773988751E+01
 0.34139530698E+01 0.35818165588E+01 0.36298304741E+01 0.35678342031E+01 0.34678463178E+01
 0.34196802963E+01 0.34650410221E+01 0.35649529917E+01 0.36296430280E+01 0.35845259005E+01
 0.34171824972E+01 0.31745647326E+01 0.29239278336E+01 0.27180776602E+01 0.25870826490E+01
 0.25433821169E+01 0.25895034606E+01 0.27213402634E+01 0.29257370684E+01 0.31734779123E+01
 0.38039799925E+01 0.39272861533E+01 0.38569834431E+01 0.36935269552E+01 0.35900291419E+01
 0.36385609508E+01 0.37963616931E+01 0.39191954440E+01 0.38722631203E+01 0.36220637431E+01
 0.32414473049E+01 0.28454456103E+01 0.25223527468E+01 0.23134901045E+01 0.22303098402E+01
 0.22737557569E+01 0.24426506234E+01 0.27291943260E+01 0.31040157222E+01 0.34981066760E+01
 0.40223346575E+01 0.38733952174E+01 0.35734797627E+01 0.33635486594E+01 0.34094256429E+01
 0.36741349797E+01 0.39475743708E+01 0.40062739231E+01 0.37651621665E+01 0.33072391754E+01
 0.27976477977E+01 0.23757947706E+01 0.21027756363E+01 0.19834028223E+01 0.20076574605E+01
 0.21768320527E+01 0.24998299707E+01 0.29602302406E+01 0.34722631974E+01 0.38774380999E+01
 0.36591706412E+01 0.31506487311E+01 0.27599961259E+01 0.27632190286E+01 0.31560972237E+01
 0.36597517104E+01 0.39330671029E+01 0.38054230983E+01 0.33490494012E+01 0.27747341715E+01
 0.22772466093E+01 0.19495196603E+01 0.17968732069E+01 0.17986749718E+01 0.19518763588E+01
 0.22756141676E+01 0.27702257983E+01 0.33476066832E+01 0.38096548345E+01 0.39380650814E+01
 0.26177674611E+01 0.20053178941E+01 0.19051319318E+01 0.23828045312E+01 0.31250941029E+01
 0.36751675127E+01 0.37467697059E+01 0.33665101492E+01 0.27754071737E+01 0.22269944126E+01
 0.18555875155E+01 0.16727487570E+01 0.16481901358E+01 0.17748538583E+01 0.20801554639E+01
 0.25777574928E+01 0.31806080906E+01 0.36643696195E+01 0.37591210004E+01 0.33471192359E+01
 0.14157306970E+01 0.11724585466E+01 0.16555020478E+01 0.25599483021E+01 0.33521235651E+01
 0.36385789405E+01 0.33774467667E+01 0.28089881559E+01 0.22301415127E+01 0.18200752073E+01
 0.16091909648E+01 0.15610600152E+01 0.16587632974E+01 0.19313704332E+01 0.24076460975E+01
 0.30150337043E+01 0.35208893439E+01 0.36149401342E+01 0.31281332736E+01 0.22332478141E+01
 0.86588787720E+00 0.12556842248E+01 0.21806330175E+01 0.30974744714E+01 0.35433484819E+01
 0.34027757537E+01 0.28841654284E+01 0.22978337693E+01 0.18548567038E+01 0.16105294358E+01
 0.15361697621E+01 0.16105056776E+01 0.18546215628E+01 0.22976525029E+01 0.28847615569E+01
 0.34042639509E+01 0.35445018341E+01 0.30967359813E+01 0.21780374393E+01 0.12533000293E+01
 0.13962751414E+01 0.22032692733E+01 0.30899986923E+01 0.35801418730E+01 0.35004840947E+01
 0.30113367676E+01 0.24142097294E+01 0.19395869262E+01 0.16636365872E+01 0.15634724582E+01
 0.16129290936E+01 0.18271792103E+01 0.22377130409E+01 0.28100395472E+01 0.33644440744E+01
 0.36093264682E+01 0.33133487187E+01 0.25237172063E+01 0.16300217610E+01 0.11552565067E+01
 0.25822191222E+01 0.33045209586E+01 0.37202595669E+01 0.36399766821E+01 0.31730458099E+01
 0.25806640912E+01 0.20848363342E+01 0.17760627944E+01 0.16464938065E+01 0.16718674835E+01
 0.18580886426E+01 0.22310699446E+01 0.27747750993E+01 0.33535839380E+01 0.37178287356E+01
 0.36347643902E+01 0.30840366877E+01 0.23498848485E+01 0.18797629535E+01 0.19787084017E+01
 0.36141403239E+01 0.38982032860E+01 0.37835627745E+01 0.33366576327E+01 0.27686747829E+01
 0.22759605648E+01 0.19494072115E+01 0.17934844663E+01 0.17919434596E+01 0.19474645686E+01
 0.22773944194E+01 0.27719640895E+01 0.33363657196E+01 0.37783112741E+01 0.38939417629E+01
 0.36171079160E+01 0.31177662206E+01 0.27298187007E+01 0.27254522209E+01 0.31096763985E+01
 0.39857990791E+01 0.38529503759E+01 0.34603869575E+01 0.29562400532E+01 0.24980506909E+01
 0.21738392538E+01 0.20033536618E+01 0.19793971844E+01 0.21005256770E+01 0.23749459271E+01
 0.27947236484E+01 0.32966852061E+01 0.37427226052E+01 0.39725814030E+01 0.39085418451E+01
 0.36362361825E+01 0.33742241346E+01 0.33274298576E+01 0.35331586628E+01 0.38312679843E+01
 0.37841923714E+01 0.34875267112E+01 0.31008575091E+01 0.27307578513E+01 0.24468220485E+01
 0.22794003543E+01 0.22366513155E+01 0.23197994713E+01 0.25275028111E+01 0.28470549691E+01
 0.32358305110E+01 0.36066078090E+01 0.38475392220E+01 0.38892486747E+01 0.37658763623E+01
 0.36093087213E+01 0.35604408025E+01 0.36619344901E+01 0.38249335942E+01 0.38992974334E+01
 0.34075287042E+01 0.31752874609E+01 0.29372230622E+01 0.27425564074E+01 0.26178873293E+01
 0.25741540045E+01 0.26152555456E+01 0.27400661212E+01 0.29374992704E+01 0.31781741014E+01
 0.34104397735E+01 0.35696614957E+01 0.36108752607E+01 0.35462485400E+01 0.34478066760E+01
 0.34027729616E+01 0.34498879960E+01 0.35492994201E+01 0.36129535036E+01 0.35691269117E+01
 0.31763215283E+01 0.31061891339E+01 0.30401598372E+01 0.29959145522E+01 0.29797106968E+01
 0.29901642365E+01 0.30245535335E+01 0.30804650291E+01 0.31496974158E+01 0.32113085076E+01
 0.32357901214E+01 0.32024090378E+01 0.31201359355E+01 0.30312013386E+01 0.29864527965E+01
 0.30113516054E+01 0.30895938287E+01 0.31762426036E+01 0.32276103159E+01 0.32247127248E+01
 0.32133600818E+01 0.33173781261E+01 0.33966156332E+01 0.34364328637E+01 0.34274821422E+01
 0.33717429373E+01 0.32818650690E+01 0.31735074189E+01 0.30560979372E+01 0.29301457667E+01
 0.27947316494E+01 0.26591019348E+01 0.25470218752E+01 0.24883723192E+01 0.25013453917E+01
 0.25806834719E+01 0.27020012426E+01 0.28378206850E+01 0.29710300749E+01 0.30963735729E+01
 0.35293989413E+01 0.37649611223E+01 0.39017513309E+01 0.39011895151E+01 0.37640705087E+01
 0.35293458318E+01 0.32500265884E+01 0.29677288525E+01 0.27044711191E+01 0.24709786378E+01