   2   2   0   0
  0.5826232E+01  0.2267324E-09  0.3206481E-09  0.2266682E-09  0.5000000E-15
   1.0000000000000000E-004
  CAR 
 unknown system                          
     32.88892341    -10.64917759  301      6.01494872      1.00000000
    -10.649  0.0000E+00  0.0000E+00  0.0000E+00  0.0000E+00
    -10.504  0.0000E+00  0.0000E+00  0.0000E+00  0.0000E+00
    -10.359  0.0000E+00  0.0000E+00  0.0000E+00  0.0000E+00
    -10.214  0.0000E+00  0.0000E+00  0.0000E+00  0.0000E+00
    -10.069  0.0000E+00  0.0000E+00  0.0000E+00  0.0000E+00
     -9.924  0.0000E+00  0.0000E+00  0.0000E+00  0.0000E+00
     -9.778  0.9945E-15  0.0000E+00  0.1443E-15  0.0000E+00
     -9.633  0.2365E-11  0.0000E+00  0.3434E-12  0.0000E+00
     -9.488  0.2053E-08  0.0000E+00  0.2983E-09  0.0000E+00
     -9.343  0.6374E-06  0.0000E+00  0.9281E-07  0.0000E+00
     -9.198  0.7130E-04  0.0000E+00  0.1044E-04  0.0000E+00
     -9.053  0.2904E-02  0.0000E+00  0.4319E-03  0.0000E+00
     -8.908  0.4360E-01  0.0000E+00  0.6759E-02  0.0000E+00
     -8.763  0.2448E+00  0.2670E-13  0.4228E-01  0.3875E-14
     -8.617  0.5202E+00  0.4262E-10  0.1178E+00  0.6189E-11
     -8.472  0.4212E+00  0.2428E-07  0.1789E+00  0.3530E-08
     -8.327  0.1297E+00  0.4960E-05  0.1977E+00  0.7233E-06
     -8.182  0.1504E-01  0.3665E-03  0.1999E+00  0.5392E-04
     -8.037  0.6481E-03  0.9910E-02  0.2000E+00  0.1492E-02
     -7.892  0.1024E-04  0.9935E-01  0.2000E+00  0.1591E-01
     -7.747  0.5860E-07  0.3745E+00  0.2000E+00  0.7025E-01
     -7.602  0.1204E-09  0.5361E+00  0.2000E+00  0.1481E+00
     -7.456  0.8828E-13  0.2925E+00  0.2000E+00  0.1905E+00
     -7.311  0.0000E+00  0.6051E-01  0.2000E+00  0.1993E+00
     -7.166  0.0000E+00  0.4689E-02  0.2000E+00  0.2000E+00
     -7.021  0.0000E+00  0.1343E-03  0.2000E+00  0.2000E+00
     -6.876  0.0000E+00  0.1402E-05  0.2000E+00  0.2000E+00
     -6.731  0.0000E+00  0.5285E-08  0.2000E+00  0.2000E+00
     -6.586  0.0000E+00  0.7129E-11  0.2000E+00  0.2000E+00
     -6.440  0.0000E+00  0.3366E-14  0.2000E+00  0.2000E+00
     -6.295  0.0000E+00  0.0000E+00  0.2000E+00  0.2000E+00
     -6.150  0.0000E+00  0.0000E+00  0.2000E+00  0.2000E+00
     -6.005  0.0000E+00  0.0000E+00  0.2000E+00  0.2000E+00
     -5.860  0.0000E+00  0.0000E+00  0.2000E+00  0.2000E+00
     -5.715  0.0000E+00  0.0000E+00  0.2000E+00  0.2000E+00
     -5.570  0.0000E+00  0.0000E+00  0.2000E+00  0.2000E+00
     -5.425  0.0000E+00  0.0000E+00  0.2000E+00  0.2000E+00
     -5.279  0.0000E+00  0.0000E+00  0.2000E+00  0.2000E+00
     -5.134  0.0000E+00  0.0000E+00  0.2000E+00  0.2000E+00
     -4.989  0.0000E+00  0.0000E+00  0.2000E+00  0.2000E+00
     -4.844  0.0000E+00  0.0000E+00  0.2000E+00  0.2000E+00
     -4.699  0.0000E+00  0.0000E+00  0.2000E+00  0.2000E+00
     -4.554  0.0000E+00  0.0000E+00  0.2000E+00  0.2000E+00
     -4.409  0.0000E+00  0.0000E+00  0.2000E+00  0.2000E+00
     -4.264  0.0000E+00  0.0000E+00  0.2000E+00  0.2000E+00
     -4.118  0.0000E+00  0.0000E+00  0.2000E+00  0.2000E+00
     -3.973  0.0000E+00  0.0000E+00  0.2000E+00  0.2000E+00
     -3.828  0.0000E+00  0.0000E+00  0.2000E+00  0.2000E+00
     -3.683  0.0000E+00  0.0000E+00  0.2000E+00  0.2000E+00
     -3.538  0.0000E+00  0.0000E+00  0.2000E+00  0.2000E+00
     -3.393  0.0000E+00  0.0000E+00  0.2000E+00  0.2000E+00
     -3.248  0.0000E+00  0.0000E+00  0.2000E+00  0.2000E+00
     -3.103  0.0000E+00  0.0000E+00  0.2000E+00  0.2000E+00
     -2.957  0.0000E+00  0.0000E+00  0.2000E+00  0.2000E+00
     -2.812  0.0000E+00  0.0000E+00  0.2000E+00  0.2000E+00
     -2.667  0.0000E+00  0.0000E+00  0.2000E+00  0.2000E+00
     -2.522  0.0000E+00  0.0000E+00  0.2000E+00  0.2000E+00
     -2.377  0.0000E+00  0.0000E+00  0.2000E+00  0.2000E+00
     -2.232  0.0000E+00  0.0000E+00  0.2000E+00  0.2000E+00
     -2.087  0.0000E+00  0.0000E+00  0.2000E+00  0.2000E+00
     -1.942  0.0000E+00  0.0000E+00  0.2000E+00  0.2000E+00
     -1.796  0.0000E+00  0.0000E+00  0.2000E+00  0.2000E+00
     -1.651  0.0000E+00  0.0000E+00  0.2000E+00  0.2000E+00
     -1.506  0.0000E+00  0.0000E+00  0.2000E+00  0.2000E+00
     -1.361  0.0000E+00  0.0000E+00  0.2000E+00  0.2000E+00
     -1.216  0.0000E+00  0.0000E+00  0.2000E+00  0.2000E+00
     -1.071  0.0000E+00  0.0000E+00  0.2000E+00  0.2000E+00
     -0.926  0.0000E+00  0.0000E+00  0.2000E+00  0.2000E+00
     -0.781  0.0000E+00  0.0000E+00  0.2000E+00  0.2000E+00
     -0.635  0.0000E+00  0.0000E+00  0.2000E+00  0.2000E+00
     -0.490  0.0000E+00  0.0000E+00  0.2000E+00  0.2000E+00
     -0.345  0.0000E+00  0.0000E+00  0.2000E+00  0.2000E+00
     -0.200  0.0000E+00  0.0000E+00  0.2000E+00  0.2000E+00
     -0.055  0.0000E+00  0.0000E+00  0.2000E+00  0.2000E+00
      0.090  0.0000E+00  0.0000E+00  0.2000E+00  0.2000E+00
      0.235  0.0000E+00  0.0000E+00  0.2000E+00  0.2000E+00
      0.380  0.0000E+00  0.0000E+00  0.2000E+00  0.2000E+00
      0.526  0.0000E+00  0.0000E+00  0.2000E+00  0.2000E+00
      0.671  0.0000E+00  0.0000E+00  0.2000E+00  0.2000E+00
      0.816  0.0000E+00  0.0000E+00  0.2000E+00  0.2000E+00
      0.961  0.0000E+00  0.0000E+00  0.2000E+00  0.2000E+00
      1.106  0.0000E+00  0.0000E+00  0.2000E+00  0.2000E+00
      1.251  0.0000E+00  0.0000E+00  0.2000E+00  0.2000E+00
      1.396  0.0000E+00  0.0000E+00  0.2000E+00  0.2000E+00
      1.541  0.0000E+00  0.0000E+00  0.2000E+00  0.2000E+00
      1.687  0.0000E+00  0.0000E+00  0.2000E+00  0.2000E+00
      1.832  0.0000E+00  0.0000E+00  0.2000E+00  0.2000E+00
      1.977  0.0000E+00  0.0000E+00  0.2000E+00  0.2000E+00
      2.122  0.0000E+00  0.0000E+00  0.2000E+00  0.2000E+00
      2.267  0.0000E+00  0.0000E+00  0.2000E+00  0.2000E+00
      2.412  0.0000E+00  0.0000E+00  0.2000E+00  0.2000E+00
      2.557  0.0000E+00  0.0000E+00  0.2000E+00  0.2000E+00
      2.703  0.0000E+00  0.0000E+00  0.2000E+00  0.2000E+00
      2.848  0.0000E+00  0.0000E+00  0.2000E+00  0.2000E+00
      2.993  0.0000E+00  0.0000E+00  0.2000E+00  0.2000E+00
      3.138  0.0000E+00  0.0000E+00  0.2000E+00  0.2000E+00
      3.283  0.0000E+00  0.0000E+00  0.2000E+00  0.2000E+00
      3.428  0.0000E+00  0.0000E+00  0.2000E+00  0.2000E+00
      3.573  0.0000E+00  0.0000E+00  0.2000E+00  0.2000E+00
      3.718  0.0000E+00  0.0000E+00  0.2000E+00  0.2000E+00
      3.864  0.0000E+00  0.0000E+00  0.2000E+00  0.2000E+00
      4.009  0.0000E+00  0.0000E+00  0.2000E+00  0.2000E+00
      4.154  0.0000E+00  0.0000E+00  0.2000E+00  0.2000E+00
      4.299  0.0000E+00  0.0000E+00  0.2000E+00  0.2000E+00
      4.444  0.0000E+00  0.0000E+00  0.2000E+00  0.2000E+00
      4.589  0.0000E+00  0.0000E+00  0.2000E+00  0.2000E+00
      4.734  0.0000E+00  0.0000E+00  0.2000E+00  0.2000E+00
      4.879  0.1377E-14  0.0000E+00  0.2000E+00  0.2000E+00
      5.025  0.3445E-11  0.0000E+00  0.2000E+00  0.2000E+00
      5.170  0.3128E-08  0.0000E+00  0.2000E+00  0.2000E+00
      5.315  0.1015E-05  0.0000E+00  0.2000E+00  0.2000E+00
      5.460  0.1187E-03  0.0000E+00  0.2000E+00  0.2000E+00
      5.605  0.5049E-02  0.0000E+00  0.2008E+00  0.2000E+00
      5.750  0.7914E-01  0.0000E+00  0.2122E+00  0.2000E+00
      5.895  0.4635E+00  0.0000E+00  0.2795E+00  0.2000E+00
      6.040  0.1027E+01  0.0000E+00  0.4286E+00  0.2000E+00
      6.186  0.8673E+00  0.0000E+00  0.5545E+00  0.2000E+00
      6.331  0.2785E+00  0.0000E+00  0.5949E+00  0.2000E+00
      6.476  0.3371E-01  0.0000E+00  0.5998E+00  0.2000E+00
      6.621  0.1517E-02  0.0000E+00  0.6000E+00  0.2000E+00
      6.766  0.2504E-04  0.0000E+00  0.6000E+00  0.2000E+00
      6.911  0.1498E-06  0.0000E+00  0.6000E+00  0.2000E+00
      7.056  0.3218E-09  0.0000E+00  0.6000E+00  0.2000E+00
      7.201  0.2468E-12  0.0000E+00  0.6000E+00  0.2000E+00
      7.347  0.0000E+00  0.0000E+00  0.6000E+00  0.2000E+00
      7.492  0.0000E+00  0.0000E+00  0.6000E+00  0.2000E+00
      7.637  0.0000E+00  0.0000E+00  0.6000E+00  0.2000E+00
      7.782  0.0000E+00  0.9180E-14  0.6000E+00  0.2000E+00
      7.927  0.0000E+00  0.1845E-10  0.6000E+00  0.2000E+00
      8.072  0.0000E+00  0.1318E-07  0.6000E+00  0.2000E+00
      8.217  0.0000E+00  0.3369E-05  0.6000E+00  0.2000E+00
      8.362  0.0000E+00  0.3109E-03  0.6000E+00  0.2000E+00
      8.508  0.0000E+00  0.1047E-01  0.6000E+00  0.2016E+00
      8.653  0.0000E+00  0.1303E+00  0.6000E+00  0.2205E+00
      8.798  0.0000E+00  0.6083E+00  0.6000E+00  0.3088E+00
      8.943  0.0000E+00  0.1076E+01  0.6000E+00  0.4650E+00
      9.088  0.0000E+00  0.7259E+00  0.6000E+00  0.5703E+00
      9.233  0.0000E+00  0.1859E+00  0.6000E+00  0.5973E+00
      9.378  0.0000E+00  0.1790E-01  0.6000E+00  0.5999E+00
      9.523  0.0000E+00  0.6384E-03  0.6000E+00  0.6000E+00
      9.669  0.0000E+00  0.8327E-05  0.6000E+00  0.6000E+00
      9.814  0.0000E+00  0.3928E-07  0.6000E+00  0.6000E+00
      9.959  0.1706E-13  0.6643E-10  0.6000E+00  0.6000E+00
     10.104  0.2894E-10  0.4009E-13  0.6000E+00  0.6000E+00
     10.249  0.1747E-07  0.0000E+00  0.6000E+00  0.6000E+00
     10.394  0.3780E-05  0.0000E+00  0.6000E+00  0.6000E+00
     10.539  0.2957E-03  0.0000E+00  0.6000E+00  0.6000E+00
     10.684  0.8455E-02  0.0000E+00  0.6013E+00  0.6000E+00
     10.830  0.8959E-01  0.0000E+00  0.6143E+00  0.6000E+00
     10.975  0.3566E+00  0.2678E-14  0.6660E+00  0.6000E+00
     11.120  0.5390E+00  0.5766E-11  0.7443E+00  0.6000E+00
     11.265  0.3105E+00  0.4408E-08  0.7893E+00  0.6000E+00
     11.410  0.6784E-01  0.1206E-05  0.7992E+00  0.6000E+00
     11.555  0.5558E-02  0.1190E-03  0.8000E+00  0.6000E+00
     11.700  0.1684E-03  0.4281E-02  0.8000E+00  0.6006E+00
     11.846  0.1861E-05  0.5688E-01  0.8000E+00  0.6089E+00
     11.991  0.7430E-08  0.2831E+00  0.8000E+00  0.6500E+00
     12.136  0.1062E-10  0.5340E+00  0.8000E+00  0.7275E+00
     12.281  0.5508E-14  0.3838E+00  0.8000E+00  0.7832E+00
     12.426  0.0000E+00  0.1048E+00  0.8000E+00  0.7984E+00
     12.571  0.0000E+00  0.1076E-01  0.8000E+00  0.7999E+00
     12.716  0.0000E+00  0.4102E-03  0.8000E+00  0.8000E+00
     12.861  0.0000E+00  0.5720E-05  0.8000E+00  0.8000E+00
     13.007  0.0000E+00  0.2886E-07  0.8000E+00  0.8000E+00
     13.152  0.0000E+00  0.5223E-10  0.8000E+00  0.8000E+00
     13.297  0.0000E+00  0.3366E-13  0.8000E+00  0.8000E+00
     13.442  0.0000E+00  0.0000E+00  0.8000E+00  0.8000E+00
     13.587  0.0000E+00  0.0000E+00  0.8000E+00  0.8000E+00
     13.732  0.0000E+00  0.0000E+00  0.8000E+00  0.8000E+00
     13.877  0.0000E+00  0.0000E+00  0.8000E+00  0.8000E+00
     14.022  0.7650E-16  0.0000E+00  0.8000E+00  0.8000E+00
     14.168  0.3318E-12  0.0000E+00  0.8000E+00  0.8000E+00
     14.313  0.3785E-09  0.0000E+00  0.8000E+00  0.8000E+00
     14.458  0.1542E-06  0.0000E+00  0.8000E+00  0.8000E+00
     14.603  0.2258E-04  0.0000E+00  0.8000E+00  0.8000E+00
     14.748  0.1200E-02  0.2540E-13  0.8002E+00  0.8000E+00
     14.893  0.2343E-01  0.4081E-10  0.8036E+00  0.8000E+00
     15.038  0.1705E+00  0.2340E-07  0.8283E+00  0.8000E+00
     15.183  0.4681E+00  0.4812E-05  0.8963E+00  0.8000E+00
     15.329  0.4892E+00  0.3579E-03  0.9673E+00  0.8001E+00
     15.474  0.1947E+00  0.9736E-02  0.9955E+00  0.8015E+00
     15.619  0.2927E-01  0.9822E-01  0.9998E+00  0.8157E+00
     15.764  0.1642E-02  0.3725E+00  0.1000E+01  0.8698E+00
     15.909  0.3387E-04  0.5365E+00  0.1000E+01  0.9476E+00
     16.054  0.2539E-06  0.2946E+00  0.1000E+01  0.9904E+00
     16.199  0.6847E-09  0.6130E-01  0.1000E+01  0.9993E+00
     16.344  0.6594E-12  0.4781E-02  0.1000E+01  0.1000E+01
     16.490  0.3060E-15  0.1378E-03  0.1000E+01  0.1000E+01
     16.635  0.0000E+00  0.1448E-05  0.1000E+01  0.1000E+01
     16.780  0.0000E+00  0.5492E-08  0.1000E+01  0.1000E+01
     16.925  0.0000E+00  0.7457E-11  0.1000E+01  0.1000E+01
     17.070  0.0000E+00  0.3672E-14  0.1000E+01  0.1000E+01
     17.215  0.0000E+00  0.0000E+00  0.1000E+01  0.1000E+01
     17.360  0.0000E+00  0.0000E+00  0.1000E+01  0.1000E+01
     17.505  0.0000E+00  0.0000E+00  0.1000E+01  0.1000E+01
     17.651  0.0000E+00  0.0000E+00  0.1000E+01  0.1000E+01
     17.796  0.0000E+00  0.0000E+00  0.1000E+01  0.1000E+01
     17.941  0.0000E+00  0.0000E+00  0.1000E+01  0.1000E+01
     18.086  0.0000E+00  0.0000E+00  0.1000E+01  0.1000E+01
     18.231  0.0000E+00  0.0000E+00  0.1000E+01  0.1000E+01
     18.376  0.0000E+00  0.0000E+00  0.1000E+01  0.1000E+01
     18.521  0.0000E+00  0.0000E+00  0.1000E+01  0.1000E+01
     18.666  0.0000E+00  0.0000E+00  0.1000E+01  0.1000E+01
     18.812  0.0000E+00  0.0000E+00  0.1000E+01  0.1000E+01
     18.957  0.0000E+00  0.0000E+00  0.1000E+01  0.1000E+01
     19.102  0.0000E+00  0.0000E+00  0.1000E+01  0.1000E+01
     19.247  0.0000E+00  0.0000E+00  0.1000E+01  0.1000E+01
     19.392  0.0000E+00  0.0000E+00  0.1000E+01  0.1000E+01
     19.537  0.0000E+00  0.0000E+00  0.1000E+01  0.1000E+01
     19.682  0.0000E+00  0.0000E+00  0.1000E+01  0.1000E+01
     19.827  0.0000E+00  0.0000E+00  0.1000E+01  0.1000E+01
     19.973  0.0000E+00  0.0000E+00  0.1000E+01  0.1000E+01
     20.118  0.0000E+00  0.0000E+00  0.1000E+01  0.1000E+01
     20.263  0.0000E+00  0.0000E+00  0.1000E+01  0.1000E+01
     20.408  0.0000E+00  0.0000E+00  0.1000E+01  0.1000E+01
     20.553  0.0000E+00  0.0000E+00  0.1000E+01  0.1000E+01
     20.698  0.0000E+00  0.0000E+00  0.1000E+01  0.1000E+01
     20.843  0.0000E+00  0.0000E+00  0.1000E+01  0.1000E+01
     20.989  0.0000E+00  0.0000E+00  0.1000E+01  0.1000E+01
     21.134  0.0000E+00  0.0000E+00  0.1000E+01  0.1000E+01
     21.279  0.0000E+00  0.0000E+00  0.1000E+01  0.1000E+01
     21.424  0.0000E+00  0.0000E+00  0.1000E+01  0.1000E+01
     21.569  0.0000E+00  0.0000E+00  0.1000E+01  0.1000E+01
     21.714  0.0000E+00  0.0000E+00  0.1000E+01  0.1000E+01
     21.859  0.0000E+00  0.0000E+00  0.1000E+01  0.1000E+01
     22.004  0.0000E+00  0.0000E+00  0.1000E+01  0.1000E+01
     22.150  0.0000E+00  0.0000E+00  0.1000E+01  0.1000E+01
     22.295  0.0000E+00  0.0000E+00  0.1000E+01  0.1000E+01
     22.440  0.0000E+00  0.0000E+00  0.1000E+01  0.1000E+01
     22.585  0.0000E+00  0.0000E+00  0.1000E+01  0.1000E+01
     22.730  0.0000E+00  0.0000E+00  0.1000E+01  0.1000E+01
     22.875  0.0000E+00  0.0000E+00  0.1000E+01  0.1000E+01
     23.020  0.0000E+00  0.0000E+00  0.1000E+01  0.1000E+01
     23.165  0.0000E+00  0.0000E+00  0.1000E+01  0.1000E+01
     23.311  0.0000E+00  0.0000E+00  0.1000E+01  0.1000E+01
     23.456  0.0000E+00  0.0000E+00  0.1000E+01  0.1000E+01
     23.601  0.0000E+00  0.0000E+00  0.1000E+01  0.1000E+01
     23.746  0.0000E+00  0.0000E+00  0.1000E+01  0.1000E+01
     23.891  0.0000E+00  0.0000E+00  0.1000E+01  0.1000E+01
     24.036  0.0000E+00  0.0000E+00  0.1000E+01  0.1000E+01
     24.181  0.0000E+00  0.0000E+00  0.1000E+01  0.1000E+01
     24.326  0.0000E+00  0.0000E+00  0.1000E+01  0.1000E+01
     24.472  0.0000E+00  0.0000E+00  0.1000E+01  0.1000E+01
     24.617  0.0000E+00  0.0000E+00  0.1000E+01  0.1000E+01
     24.762  0.0000E+00  0.0000E+00  0.1000E+01  0.1000E+01
     24.907  0.0000E+00  0.0000E+00  0.1000E+01  0.1000E+01
     25.052  0.0000E+00  0.0000E+00  0.1000E+01  0.1000E+01
     25.197  0.0000E+00  0.0000E+00  0.1000E+01  0.1000E+01
     25.342  0.0000E+00  0.0000E+00  0.1000E+01  0.1000E+01
     25.487  0.0000E+00  0.0000E+00  0.1000E+01  0.1000E+01
     25.633  0.0000E+00  0.0000E+00  0.1000E+01  0.1000E+01
     25.778  0.0000E+00  0.0000E+00  0.1000E+01  0.1000E+01
     25.923  0.0000E+00  0.0000E+00  0.1000E+01  0.1000E+01
     26.068  0.0000E+00  0.0000E+00  0.1000E+01  0.1000E+01
     26.213  0.0000E+00  0.0000E+00  0.1000E+01  0.1000E+01
     26.358  0.0000E+00  0.0000E+00  0.1000E+01  0.1000E+01
     26.503  0.0000E+00  0.0000E+00  0.1000E+01  0.1000E+01
     26.648  0.0000E+00  0.0000E+00  0.1000E+01  0.1000E+01
     26.794  0.0000E+00  0.0000E+00  0.1000E+01  0.1000E+01
     26.939  0.0000E+00  0.0000E+00  0.1000E+01  0.1000E+01
     27.084  0.0000E+00  0.0000E+00  0.1000E+01  0.1000E+01
     27.229  0.0000E+00  0.0000E+00  0.1000E+01  0.1000E+01
     27.374  0.0000E+00  0.0000E+00  0.1000E+01  0.1000E+01
     27.519  0.0000E+00  0.0000E+00  0.1000E+01  0.1000E+01
     27.664  0.0000E+00  0.0000E+00  0.1000E+01  0.1000E+01
     27.809  0.0000E+00  0.0000E+00  0.1000E+01  0.1000E+01
     27.955  0.0000E+00  0.0000E+00  0.1000E+01  0.1000E+01
     28.100  0.0000E+00  0.0000E+00  0.1000E+01  0.1000E+01
     28.245  0.0000E+00  0.0000E+00  0.1000E+01  0.1000E+01
     28.390  0.0000E+00  0.0000E+00  0.1000E+01  0.1000E+01
     28.535  0.0000E+00  0.0000E+00  0.1000E+01  0.1000E+01
     28.680  0.1454E-14  0.0000E+00  0.1000E+01  0.1000E+01
     28.825  0.3329E-11  0.0000E+00  0.1000E+01  0.1000E+01
     28.970  0.2753E-08  0.0000E+00  0.1000E+01  0.1000E+01
     29.116  0.8143E-06  0.0000E+00  0.1000E+01  0.1000E+01
     29.261  0.8684E-04  0.0000E+00  0.1000E+01  0.1000E+01
     29.406  0.3373E-02  0.0000E+00  0.1001E+01  0.1000E+01
     29.551  0.4834E-01  0.0000E+00  0.1008E+01  0.1000E+01
     29.696  0.2592E+00  0.0000E+00  0.1045E+01  0.1000E+01
     29.841  0.5263E+00  0.8828E-13  0.1122E+01  0.1000E+01
     29.986  0.4072E+00  0.1204E-09  0.1181E+01  0.1000E+01
     30.132  0.1198E+00  0.5860E-07  0.1198E+01  0.1000E+01
     30.277  0.1326E-01  0.1024E-04  0.1200E+01  0.1000E+01
     30.422  0.5453E-03  0.6481E-03  0.1200E+01  0.1000E+01
     30.567  0.8215E-05  0.1504E-01  0.1200E+01  0.1002E+01
     30.712  0.4481E-07  0.1297E+00  0.1200E+01  0.1021E+01
     30.857  0.8773E-10  0.4212E+00  0.1200E+01  0.1082E+01
     31.002  0.6120E-13  0.5202E+00  0.1200E+01  0.1158E+01
     31.147  0.0000E+00  0.2448E+00  0.1200E+01  0.1193E+01
     31.293  0.0000E+00  0.4360E-01  0.1200E+01  0.1200E+01
     31.438  0.0000E+00  0.2904E-02  0.1200E+01  0.1200E+01
     31.583  0.0000E+00  0.7130E-04  0.1200E+01  0.1200E+01
     31.728  0.0000E+00  0.6374E-06  0.1200E+01  0.1200E+01
     31.873  0.0000E+00  0.2053E-08  0.1200E+01  0.1200E+01
     32.018  0.0000E+00  0.2365E-11  0.1200E+01  0.1200E+01
     32.163  0.0000E+00  0.9180E-15  0.1200E+01  0.1200E+01
     32.308  0.0000E+00  0.0000E+00  0.1200E+01  0.1200E+01
     32.454  0.0000E+00  0.0000E+00  0.1200E+01  0.1200E+01
     32.599  0.0000E+00  0.0000E+00  0.1200E+01  0.1200E+01
     32.744  0.0000E+00  0.0000E+00  0.1200E+01  0.1200E+01
     32.889  0.0000E+00  0.0000E+00  0.1200E+01  0.1200E+01
