   2   2   0   0
  0.5826232E+01  0.2267324E-09  0.3206481E-09  0.2266682E-09  0.5000000E-15
   1.0000000000000000E-004
  CAR 
 unknown system                          
     23.51555065    -10.79022977  301     14.83874360      1.00000000
    -10.790  0.0000E+00  0.0000E+00  0.0000E+00  0.0000E+00
    -10.676  0.0000E+00  0.0000E+00  0.0000E+00  0.0000E+00
    -10.562  0.0000E+00  0.0000E+00  0.0000E+00  0.0000E+00
    -10.447  0.0000E+00  0.0000E+00  0.0000E+00  0.0000E+00
    -10.333  0.0000E+00  0.0000E+00  0.0000E+00  0.0000E+00
    -10.218  0.0000E+00  0.0000E+00  0.0000E+00  0.0000E+00
    -10.104  0.0000E+00  0.0000E+00  0.0000E+00  0.0000E+00
     -9.990  0.0000E+00  0.0000E+00  0.0000E+00  0.0000E+00
     -9.875  0.1466E-13  0.0000E+00  0.1676E-14  0.0000E+00
     -9.761  0.5809E-11  0.0000E+00  0.6659E-12  0.0000E+00
     -9.647  0.1213E-08  0.0000E+00  0.1394E-09  0.0000E+00
     -9.532  0.1335E-06  0.0000E+00  0.1541E-07  0.0000E+00
     -9.418  0.7769E-05  0.0000E+00  0.9038E-06  0.0000E+00
     -9.304  0.2396E-03  0.0000E+00  0.2830E-04  0.0000E+00
     -9.189  0.3929E-02  0.0000E+00  0.4775E-03  0.0000E+00
     -9.075  0.3438E-01  0.1165E-14  0.4409E-02  0.1332E-15
     -8.961  0.1611E+00  0.5996E-12  0.2284E-01  0.6870E-13
     -8.846  0.4055E+00  0.1611E-09  0.6921E-01  0.1849E-10
     -8.732  0.5492E+00  0.2279E-07  0.1320E+00  0.2624E-08
     -8.618  0.4004E+00  0.1702E-05  0.1778E+00  0.1973E-06
     -8.503  0.1571E+00  0.6730E-04  0.1958E+00  0.7893E-05
     -8.389  0.3310E-01  0.1413E-02  0.1995E+00  0.1695E-03
     -8.274  0.3733E-02  0.1582E-01  0.2000E+00  0.1978E-02
     -8.160  0.2247E-03  0.9468E-01  0.2000E+00  0.1281E-01
     -8.046  0.7194E-05  0.3040E+00  0.2000E+00  0.4757E-01
     -7.931  0.1221E-06  0.5249E+00  0.2000E+00  0.1076E+00
     -7.817  0.1094E-08  0.4880E+00  0.2000E+00  0.1634E+00
     -7.703  0.5172E-11  0.2442E+00  0.2000E+00  0.1913E+00
     -7.588  0.1282E-13  0.6567E-01  0.2000E+00  0.1988E+00
     -7.474  0.0000E+00  0.9469E-02  0.2000E+00  0.1999E+00
     -7.360  0.0000E+00  0.7296E-03  0.2000E+00  0.2000E+00
     -7.245  0.0000E+00  0.2993E-04  0.2000E+00  0.2000E+00
     -7.131  0.0000E+00  0.6518E-06  0.2000E+00  0.2000E+00
     -7.017  0.0000E+00  0.7507E-08  0.2000E+00  0.2000E+00
     -6.902  0.0000E+00  0.4563E-10  0.2000E+00  0.2000E+00
     -6.788  0.0000E+00  0.1458E-12  0.2000E+00  0.2000E+00
     -6.674  0.0000E+00  0.3884E-15  0.2000E+00  0.2000E+00
     -6.559  0.0000E+00  0.0000E+00  0.2000E+00  0.2000E+00
     -6.445  0.0000E+00  0.0000E+00  0.2000E+00  0.2000E+00
     -6.330  0.0000E+00  0.0000E+00  0.2000E+00  0.2000E+00
     -6.216  0.0000E+00  0.0000E+00  0.2000E+00  0.2000E+00
     -6.102  0.0000E+00  0.0000E+00  0.2000E+00  0.2000E+00
     -5.987  0.0000E+00  0.0000E+00  0.2000E+00  0.2000E+00
     -5.873  0.0000E+00  0.0000E+00  0.2000E+00  0.2000E+00
     -5.759  0.0000E+00  0.0000E+00  0.2000E+00  0.2000E+00
     -5.644  0.0000E+00  0.0000E+00  0.2000E+00  0.2000E+00
     -5.530  0.0000E+00  0.0000E+00  0.2000E+00  0.2000E+00
     -5.416  0.0000E+00  0.0000E+00  0.2000E+00  0.2000E+00
     -5.301  0.0000E+00  0.0000E+00  0.2000E+00  0.2000E+00
     -5.187  0.0000E+00  0.0000E+00  0.2000E+00  0.2000E+00
     -5.073  0.0000E+00  0.0000E+00  0.2000E+00  0.2000E+00
     -4.958  0.0000E+00  0.0000E+00  0.2000E+00  0.2000E+00
     -4.844  0.0000E+00  0.0000E+00  0.2000E+00  0.2000E+00
     -4.730  0.0000E+00  0.0000E+00  0.2000E+00  0.2000E+00
     -4.615  0.0000E+00  0.0000E+00  0.2000E+00  0.2000E+00
     -4.501  0.0000E+00  0.0000E+00  0.2000E+00  0.2000E+00
     -4.386  0.0000E+00  0.0000E+00  0.2000E+00  0.2000E+00
     -4.272  0.0000E+00  0.0000E+00  0.2000E+00  0.2000E+00
     -4.158  0.0000E+00  0.0000E+00  0.2000E+00  0.2000E+00
     -4.043  0.0000E+00  0.0000E+00  0.2000E+00  0.2000E+00
     -3.929  0.0000E+00  0.0000E+00  0.2000E+00  0.2000E+00
     -3.815  0.0000E+00  0.0000E+00  0.2000E+00  0.2000E+00
     -3.700  0.0000E+00  0.0000E+00  0.2000E+00  0.2000E+00
     -3.586  0.0000E+00  0.0000E+00  0.2000E+00  0.2000E+00
     -3.472  0.0000E+00  0.0000E+00  0.2000E+00  0.2000E+00
     -3.357  0.0000E+00  0.0000E+00  0.2000E+00  0.2000E+00
     -3.243  0.0000E+00  0.0000E+00  0.2000E+00  0.2000E+00
     -3.129  0.0000E+00  0.0000E+00  0.2000E+00  0.2000E+00
     -3.014  0.0000E+00  0.0000E+00  0.2000E+00  0.2000E+00
     -2.900  0.0000E+00  0.0000E+00  0.2000E+00  0.2000E+00
     -2.786  0.0000E+00  0.0000E+00  0.2000E+00  0.2000E+00
     -2.671  0.0000E+00  0.0000E+00  0.2000E+00  0.2000E+00
     -2.557  0.0000E+00  0.0000E+00  0.2000E+00  0.2000E+00
     -2.442  0.0000E+00  0.0000E+00  0.2000E+00  0.2000E+00
     -2.328  0.0000E+00  0.0000E+00  0.2000E+00  0.2000E+00
     -2.214  0.0000E+00  0.0000E+00  0.2000E+00  0.2000E+00
     -2.099  0.0000E+00  0.0000E+00  0.2000E+00  0.2000E+00
     -1.985  0.0000E+00  0.0000E+00  0.2000E+00  0.2000E+00
     -1.871  0.0000E+00  0.0000E+00  0.2000E+00  0.2000E+00
     -1.756  0.0000E+00  0.0000E+00  0.2000E+00  0.2000E+00
     -1.642  0.0000E+00  0.0000E+00  0.2000E+00  0.2000E+00
     -1.528  0.0000E+00  0.0000E+00  0.2000E+00  0.2000E+00
     -1.413  0.0000E+00  0.0000E+00  0.2000E+00  0.2000E+00
     -1.299  0.0000E+00  0.0000E+00  0.2000E+00  0.2000E+00
     -1.185  0.0000E+00  0.0000E+00  0.2000E+00  0.2000E+00
     -1.070  0.0000E+00  0.0000E+00  0.2000E+00  0.2000E+00
     -0.956  0.0000E+00  0.0000E+00  0.2000E+00  0.2000E+00
     -0.842  0.0000E+00  0.0000E+00  0.2000E+00  0.2000E+00
     -0.727  0.0000E+00  0.0000E+00  0.2000E+00  0.2000E+00
     -0.613  0.0000E+00  0.0000E+00  0.2000E+00  0.2000E+00
     -0.498  0.0000E+00  0.0000E+00  0.2000E+00  0.2000E+00
     -0.384  0.0000E+00  0.0000E+00  0.2000E+00  0.2000E+00
     -0.270  0.0000E+00  0.0000E+00  0.2000E+00  0.2000E+00
     -0.155  0.0000E+00  0.0000E+00  0.2000E+00  0.2000E+00
     -0.041  0.0000E+00  0.0000E+00  0.2000E+00  0.2000E+00
      0.073  0.0000E+00  0.0000E+00  0.2000E+00  0.2000E+00
      0.188  0.0000E+00  0.0000E+00  0.2000E+00  0.2000E+00
      0.302  0.0000E+00  0.0000E+00  0.2000E+00  0.2000E+00
      0.416  0.0000E+00  0.0000E+00  0.2000E+00  0.2000E+00
      0.531  0.0000E+00  0.0000E+00  0.2000E+00  0.2000E+00
      0.645  0.0000E+00  0.0000E+00  0.2000E+00  0.2000E+00
      0.759  0.0000E+00  0.0000E+00  0.2000E+00  0.2000E+00
      0.874  0.0000E+00  0.0000E+00  0.2000E+00  0.2000E+00
      0.988  0.0000E+00  0.0000E+00  0.2000E+00  0.2000E+00
      1.102  0.0000E+00  0.0000E+00  0.2000E+00  0.2000E+00
      1.217  0.0000E+00  0.0000E+00  0.2000E+00  0.2000E+00
      1.331  0.0000E+00  0.0000E+00  0.2000E+00  0.2000E+00
      1.445  0.0000E+00  0.0000E+00  0.2000E+00  0.2000E+00
      1.560  0.0000E+00  0.0000E+00  0.2000E+00  0.2000E+00
      1.674  0.0000E+00  0.0000E+00  0.2000E+00  0.2000E+00
      1.789  0.0000E+00  0.0000E+00  0.2000E+00  0.2000E+00
      1.903  0.0000E+00  0.0000E+00  0.2000E+00  0.2000E+00
      2.017  0.0000E+00  0.0000E+00  0.2000E+00  0.2000E+00
      2.132  0.0000E+00  0.0000E+00  0.2000E+00  0.2000E+00
      2.246  0.0000E+00  0.0000E+00  0.2000E+00  0.2000E+00
      2.360  0.0000E+00  0.0000E+00  0.2000E+00  0.2000E+00
      2.475  0.0000E+00  0.0000E+00  0.2000E+00  0.2000E+00
      2.589  0.0000E+00  0.0000E+00  0.2000E+00  0.2000E+00
      2.703  0.0000E+00  0.0000E+00  0.2000E+00  0.2000E+00
      2.818  0.0000E+00  0.0000E+00  0.2000E+00  0.2000E+00
      2.932  0.0000E+00  0.0000E+00  0.2000E+00  0.2000E+00
      3.046  0.0000E+00  0.0000E+00  0.2000E+00  0.2000E+00
      3.161  0.0000E+00  0.0000E+00  0.2000E+00  0.2000E+00
      3.275  0.0000E+00  0.0000E+00  0.2000E+00  0.2000E+00
      3.389  0.0000E+00  0.0000E+00  0.2000E+00  0.2000E+00
      3.504  0.0000E+00  0.0000E+00  0.2000E+00  0.2000E+00
      3.618  0.0000E+00  0.0000E+00  0.2000E+00  0.2000E+00
      3.733  0.0000E+00  0.0000E+00  0.2000E+00  0.2000E+00
      3.847  0.0000E+00  0.0000E+00  0.2000E+00  0.2000E+00
      3.961  0.0000E+00  0.0000E+00  0.2000E+00  0.2000E+00
      4.076  0.0000E+00  0.0000E+00  0.2000E+00  0.2000E+00
      4.190  0.0000E+00  0.0000E+00  0.2000E+00  0.2000E+00
      4.304  0.0000E+00  0.0000E+00  0.2000E+00  0.2000E+00
      4.419  0.0000E+00  0.0000E+00  0.2000E+00  0.2000E+00
      4.533  0.0000E+00  0.0000E+00  0.2000E+00  0.2000E+00
      4.647  0.0000E+00  0.0000E+00  0.2000E+00  0.2000E+00
      4.762  0.0000E+00  0.0000E+00  0.2000E+00  0.2000E+00
      4.876  0.0000E+00  0.0000E+00  0.2000E+00  0.2000E+00
      4.990  0.0000E+00  0.0000E+00  0.2000E+00  0.2000E+00
      5.105  0.0000E+00  0.0000E+00  0.2000E+00  0.2000E+00
      5.219  0.0000E+00  0.0000E+00  0.2000E+00  0.2000E+00
      5.333  0.0000E+00  0.0000E+00  0.2000E+00  0.2000E+00
      5.448  0.0000E+00  0.0000E+00  0.2000E+00  0.2000E+00
      5.562  0.0000E+00  0.0000E+00  0.2000E+00  0.2000E+00
      5.677  0.0000E+00  0.0000E+00  0.2000E+00  0.2000E+00
      5.791  0.0000E+00  0.0000E+00  0.2000E+00  0.2000E+00
      5.905  0.0000E+00  0.0000E+00  0.2000E+00  0.2000E+00
      6.020  0.0000E+00  0.0000E+00  0.2000E+00  0.2000E+00
      6.134  0.0000E+00  0.0000E+00  0.2000E+00  0.2000E+00
      6.248  0.0000E+00  0.0000E+00  0.2000E+00  0.2000E+00
      6.363  0.0000E+00  0.0000E+00  0.2000E+00  0.2000E+00
      6.477  0.0000E+00  0.0000E+00  0.2000E+00  0.2000E+00
      6.591  0.0000E+00  0.0000E+00  0.2000E+00  0.2000E+00
      6.706  0.0000E+00  0.0000E+00  0.2000E+00  0.2000E+00
      6.820  0.0000E+00  0.0000E+00  0.2000E+00  0.2000E+00
      6.934  0.0000E+00  0.0000E+00  0.2000E+00  0.2000E+00
      7.049  0.0000E+00  0.0000E+00  0.2000E+00  0.2000E+00
      7.163  0.0000E+00  0.0000E+00  0.2000E+00  0.2000E+00
      7.277  0.0000E+00  0.0000E+00  0.2000E+00  0.2000E+00
      7.392  0.0000E+00  0.0000E+00  0.2000E+00  0.2000E+00
      7.506  0.0000E+00  0.0000E+00  0.2000E+00  0.2000E+00
      7.621  0.0000E+00  0.0000E+00  0.2000E+00  0.2000E+00
      7.735  0.0000E+00  0.0000E+00  0.2000E+00  0.2000E+00
      7.849  0.0000E+00  0.0000E+00  0.2000E+00  0.2000E+00
      7.964  0.0000E+00  0.0000E+00  0.2000E+00  0.2000E+00
      8.078  0.0000E+00  0.0000E+00  0.2000E+00  0.2000E+00
      8.192  0.0000E+00  0.0000E+00  0.2000E+00  0.2000E+00
      8.307  0.0000E+00  0.0000E+00  0.2000E+00  0.2000E+00
      8.421  0.0000E+00  0.0000E+00  0.2000E+00  0.2000E+00
      8.535  0.0000E+00  0.0000E+00  0.2000E+00  0.2000E+00
      8.650  0.0000E+00  0.0000E+00  0.2000E+00  0.2000E+00
      8.764  0.0000E+00  0.0000E+00  0.2000E+00  0.2000E+00
      8.878  0.0000E+00  0.0000E+00  0.2000E+00  0.2000E+00
      8.993  0.0000E+00  0.0000E+00  0.2000E+00  0.2000E+00
      9.107  0.0000E+00  0.0000E+00  0.2000E+00  0.2000E+00
      9.221  0.0000E+00  0.0000E+00  0.2000E+00  0.2000E+00
      9.336  0.0000E+00  0.0000E+00  0.2000E+00  0.2000E+00
      9.450  0.0000E+00  0.0000E+00  0.2000E+00  0.2000E+00
      9.565  0.0000E+00  0.0000E+00  0.2000E+00  0.2000E+00
      9.679  0.0000E+00  0.0000E+00  0.2000E+00  0.2000E+00
      9.793  0.0000E+00  0.0000E+00  0.2000E+00  0.2000E+00
      9.908  0.0000E+00  0.0000E+00  0.2000E+00  0.2000E+00
     10.022  0.0000E+00  0.0000E+00  0.2000E+00  0.2000E+00
     10.136  0.0000E+00  0.0000E+00  0.2000E+00  0.2000E+00
     10.251  0.0000E+00  0.0000E+00  0.2000E+00  0.2000E+00
     10.365  0.0000E+00  0.0000E+00  0.2000E+00  0.2000E+00
     10.479  0.0000E+00  0.0000E+00  0.2000E+00  0.2000E+00
     10.594  0.0000E+00  0.0000E+00  0.2000E+00  0.2000E+00
     10.708  0.0000E+00  0.0000E+00  0.2000E+00  0.2000E+00
     10.822  0.0000E+00  0.0000E+00  0.2000E+00  0.2000E+00
     10.937  0.0000E+00  0.0000E+00  0.2000E+00  0.2000E+00
     11.051  0.0000E+00  0.0000E+00  0.2000E+00  0.2000E+00
     11.165  0.0000E+00  0.0000E+00  0.2000E+00  0.2000E+00
     11.280  0.0000E+00  0.0000E+00  0.2000E+00  0.2000E+00
     11.394  0.0000E+00  0.0000E+00  0.2000E+00  0.2000E+00
     11.509  0.0000E+00  0.0000E+00  0.2000E+00  0.2000E+00
     11.623  0.0000E+00  0.0000E+00  0.2000E+00  0.2000E+00
     11.737  0.0000E+00  0.0000E+00  0.2000E+00  0.2000E+00
     11.852  0.0000E+00  0.0000E+00  0.2000E+00  0.2000E+00
     11.966  0.0000E+00  0.0000E+00  0.2000E+00  0.2000E+00
     12.080  0.0000E+00  0.0000E+00  0.2000E+00  0.2000E+00
     12.195  0.0000E+00  0.0000E+00  0.2000E+00  0.2000E+00
     12.309  0.0000E+00  0.0000E+00  0.2000E+00  0.2000E+00
     12.423  0.0000E+00  0.0000E+00  0.2000E+00  0.2000E+00
     12.538  0.0000E+00  0.0000E+00  0.2000E+00  0.2000E+00
     12.652  0.0000E+00  0.0000E+00  0.2000E+00  0.2000E+00
     12.766  0.0000E+00  0.0000E+00  0.2000E+00  0.2000E+00
     12.881  0.0000E+00  0.0000E+00  0.2000E+00  0.2000E+00
     12.995  0.0000E+00  0.0000E+00  0.2000E+00  0.2000E+00
     13.109  0.0000E+00  0.0000E+00  0.2000E+00  0.2000E+00
     13.224  0.0000E+00  0.0000E+00  0.2000E+00  0.2000E+00
     13.338  0.0000E+00  0.0000E+00  0.2000E+00  0.2000E+00
     13.453  0.0000E+00  0.0000E+00  0.2000E+00  0.2000E+00
     13.567  0.0000E+00  0.0000E+00  0.2000E+00  0.2000E+00
     13.681  0.3884E-15  0.0000E+00  0.2000E+00  0.2000E+00
     13.796  0.2843E-12  0.0000E+00  0.2000E+00  0.2000E+00
     13.910  0.8909E-10  0.0000E+00  0.2000E+00  0.2000E+00
     14.024  0.1470E-07  0.0000E+00  0.2000E+00  0.2000E+00
     14.139  0.1280E-05  0.0000E+00  0.2000E+00  0.2000E+00
     14.253  0.5895E-04  0.0000E+00  0.2000E+00  0.2000E+00
     14.367  0.1441E-02  0.0000E+00  0.2002E+00  0.2000E+00
     14.482  0.1875E-01  0.0000E+00  0.2023E+00  0.2000E+00
     14.596  0.1304E+00  0.0000E+00  0.2172E+00  0.2000E+00
     14.710  0.4862E+00  0.0000E+00  0.2728E+00  0.2000E+00
     14.825  0.9743E+00  0.0000E+00  0.3842E+00  0.2000E+00
     14.939  0.1051E+01  0.0000E+00  0.5044E+00  0.2000E+00
     15.053  0.6115E+00  0.0000E+00  0.5743E+00  0.2000E+00
     15.168  0.2041E+00  0.0000E+00  0.5977E+00  0.2000E+00
     15.282  0.1165E+00  0.0000E+00  0.6110E+00  0.2000E+00
     15.397  0.2874E+00  0.0000E+00  0.6439E+00  0.2000E+00
     15.511  0.5149E+00  0.1456E-14  0.7027E+00  0.2000E+00
     15.625  0.5014E+00  0.7288E-12  0.7601E+00  0.2000E+00
     15.740  0.2629E+00  0.1917E-09  0.7901E+00  0.2000E+00
     15.854  0.7410E-01  0.2655E-07  0.7986E+00  0.2000E+00
     15.968  0.1120E-01  0.1942E-05  0.7999E+00  0.2000E+00
     16.083  0.9050E-03  0.7518E-04  0.8000E+00  0.2000E+00
     16.197  0.4407E-04  0.1546E-02  0.8000E+00  0.2002E+00
     16.311  0.1704E-03  0.1695E-01  0.8000E+00  0.2021E+00
     16.426  0.2979E-02  0.9939E-01  0.8004E+00  0.2135E+00
     16.540  0.2793E-01  0.3126E+00  0.8036E+00  0.2492E+00
     16.654  0.1402E+00  0.5289E+00  0.8196E+00  0.3097E+00
     16.769  0.3777E+00  0.4817E+00  0.8628E+00  0.3648E+00
     16.883  0.5475E+00  0.2367E+00  0.9254E+00  0.3919E+00
     16.997  0.4273E+00  0.7185E-01  0.9742E+00  0.4001E+00
     17.112  0.1795E+00  0.9628E-01  0.9948E+00  0.4111E+00
     17.226  0.4049E-01  0.4294E+00  0.9994E+00  0.4602E+00
     17.341  0.4893E-02  0.1137E+01  0.1000E+01  0.5902E+00
     17.455  0.3157E-03  0.1634E+01  0.1000E+01  0.7770E+00
     17.569  0.1083E-04  0.1273E+01  0.1000E+01  0.9226E+00
     17.684  0.1971E-06  0.5377E+00  0.1000E+01  0.9841E+00
     17.798  0.1896E-08  0.1227E+00  0.1000E+01  0.9982E+00
     17.912  0.9614E-11  0.1509E-01  0.1000E+01  0.9999E+00
     18.027  0.2563E-13  0.9955E-03  0.1000E+01  0.1000E+01
     18.141  0.0000E+00  0.3511E-04  0.1000E+01  0.1000E+01
     18.255  0.0000E+00  0.6595E-06  0.1000E+01  0.1000E+01
     18.370  0.0000E+00  0.6574E-08  0.1000E+01  0.1000E+01
     18.484  0.0000E+00  0.3466E-10  0.1000E+01  0.1000E+01
     18.598  0.0000E+00  0.9670E-13  0.1000E+01  0.1000E+01
     18.713  0.0000E+00  0.0000E+00  0.1000E+01  0.1000E+01
     18.827  0.0000E+00  0.0000E+00  0.1000E+01  0.1000E+01
     18.941  0.0000E+00  0.0000E+00  0.1000E+01  0.1000E+01
     19.056  0.0000E+00  0.0000E+00  0.1000E+01  0.1000E+01
     19.170  0.0000E+00  0.0000E+00  0.1000E+01  0.1000E+01
     19.285  0.0000E+00  0.0000E+00  0.1000E+01  0.1000E+01
     19.399  0.0000E+00  0.0000E+00  0.1000E+01  0.1000E+01
     19.513  0.0000E+00  0.0000E+00  0.1000E+01  0.1000E+01
     19.628  0.0000E+00  0.0000E+00  0.1000E+01  0.1000E+01
     19.742  0.0000E+00  0.0000E+00  0.1000E+01  0.1000E+01
     19.856  0.9709E-16  0.0000E+00  0.1000E+01  0.1000E+01
     19.971  0.8058E-13  0.0000E+00  0.1000E+01  0.1000E+01
     20.085  0.2680E-10  0.0000E+00  0.1000E+01  0.1000E+01
     20.199  0.4695E-08  0.0000E+00  0.1000E+01  0.1000E+01
     20.314  0.4337E-06  0.0000E+00  0.1000E+01  0.1000E+01
     20.428  0.2119E-04  0.1291E-13  0.1000E+01  0.1000E+01
     20.542  0.5494E-03  0.5172E-11  0.1000E+01  0.1000E+01
     20.657  0.7581E-02  0.1094E-08  0.1001E+01  0.1000E+01
     20.771  0.5589E-01  0.1221E-06  0.1007E+01  0.1000E+01
     20.885  0.2208E+00  0.7194E-05  0.1033E+01  0.1000E+01
     21.000  0.4687E+00  0.2247E-03  0.1086E+01  0.1000E+01
     21.114  0.5356E+00  0.3733E-02  0.1147E+01  0.1000E+01
     21.228  0.3295E+00  0.3310E-01  0.1185E+01  0.1004E+01
     21.343  0.1090E+00  0.1571E+00  0.1198E+01  0.1022E+01
     21.457  0.1936E-01  0.4004E+00  0.1200E+01  0.1068E+01
     21.572  0.1839E-02  0.5492E+00  0.1200E+01  0.1131E+01
     21.686  0.9312E-04  0.4055E+00  0.1200E+01  0.1177E+01
     21.800  0.2505E-05  0.1611E+00  0.1200E+01  0.1196E+01
     21.915  0.3569E-07  0.3438E-01  0.1200E+01  0.1200E+01
     22.029  0.2685E-09  0.3929E-02  0.1200E+01  0.1200E+01
     22.143  0.1064E-11  0.2396E-03  0.1200E+01  0.1200E+01
     22.258  0.2330E-14  0.7769E-05  0.1200E+01  0.1200E+01
     22.372  0.0000E+00  0.1335E-06  0.1200E+01  0.1200E+01
     22.486  0.0000E+00  0.1213E-08  0.1200E+01  0.1200E+01
     22.601  0.0000E+00  0.5809E-11  0.1200E+01  0.1200E+01
     22.715  0.0000E+00  0.1476E-13  0.1200E+01  0.1200E+01
     22.829  0.0000E+00  0.0000E+00  0.1200E+01  0.1200E+01
     22.944  0.0000E+00  0.0000E+00  0.1200E+01  0.1200E+01
     23.058  0.0000E+00  0.0000E+00  0.1200E+01  0.1200E+01
     23.172  0.0000E+00  0.0000E+00  0.1200E+01  0.1200E+01
     23.287  0.0000E+00  0.0000E+00  0.1200E+01  0.1200E+01
     23.401  0.0000E+00  0.0000E+00  0.1200E+01  0.1200E+01
     23.516  0.0000E+00  0.0000E+00  0.1200E+01  0.1200E+01
