    2    2    5    2
  0.5826232E+01  0.2267324E-09  0.3206481E-09  0.2266682E-09  0.5000000E-15
   1.0000000000000000E-004
  CAR 
 unknown system                          
      3      1      6

  0.1262379E-14  0.1262379E-14  0.1262379E-14  0.1000000E+01
    1       -8.790230     -7.944901   1.000000   1.000000
    2       14.838651     16.637128   0.500262   0.000000
    3       14.838837     17.386228   0.499737   0.000000
    4       15.506010     17.419245   0.000001   0.000000
    5       16.837322     17.419251   0.000000   0.000000
    6       21.024431     21.515551   0.000000   0.000000
