    2    2    5    2
  0.5826232E+01  0.2267324E-09  0.3206481E-09  0.2266682E-09  0.5000000E-15
   1.0000000000000000E-004
  CAR 
 unknown system                          
      3      1      6

  0.1262379E-14  0.1262379E-14  0.1262379E-14  0.1000000E+01
    1       -8.649178     -7.692630   1.000000   1.000000
    2        6.014729      8.883340   0.500619   0.000000
    3        6.015168      8.884057   0.499381   0.000000
    4       11.036905     12.086068   0.000000   0.000000
    5       15.190069     15.818859   0.000000   0.000000
    6       29.802646     30.888923   0.000000   0.000000
