 running on    1 total cores
 running on    1 total cores
 running on    1 total cores
 running on    1 total cores
 distrk:  each k-point on    1 cores,    1 groups
 distr:  one band on    1 cores,    1 groups
 distrk:  each k-point on    1 cores,    1 groups
 distr:  one band on    1 cores,    1 groups
 distrk:  each k-point on    1 cores,    1 groups
 distr:  one band on    1 cores,    1 groups
 distrk:  each k-point on    1 cores,    1 groups
 distr:  one band on    1 cores,    1 groups
 vasp.6.2.1 16May21 (build Dec 20 2021 17:15:01) gamma-only                      
 vasp.6.2.1 16May21 (build Dec 20 2021 17:15:01) gamma-only                      
 vasp.6.2.1 16May21 (build Dec 20 2021 17:15:01) gamma-only                      
 vasp.6.2.1 16May21 (build Dec 20 2021 17:15:01) gamma-only                      
 POSCAR found type information on POSCAR BeH 
 POSCAR found :  2 types and       2 ions
 POSCAR found type information on POSCAR BeH 
 POSCAR found :  2 types and       2 ions
 POSCAR found type information on POSCAR BeH 
 POSCAR found :  2 types and       2 ions
 POSCAR found type information on POSCAR BeH 
 POSCAR found :  2 types and       2 ions
 -----------------------------------------------------------------------------
|                                                                             |
|           W    W    AA    RRRRR   N    N  II  N    N   GGGG   !!!           |
|           W    W   A  A   R    R  NN   N  II  NN   N  G    G  !!!           |
|           W    W  A    A  R    R  N N  N  II  N N  N  G       !!!           |
|           W WW W  AAAAAA  RRRRR   N  N N  II  N  N N  G  GGG   !            |
|           WW  WW  A    A  R   R   N   NN  II  N   NN  G    G                |
|           W    W  A    A  R    R  N    N  II  N    N   GGGG   !!!           |
|                                                                             |
|     You use a magnetic or noncollinear calculation, but did not specify     |
|     the initial magnetic moment with the MAGMOM tag. Note that a            |
|     default of 1 will be used for all atoms. This ferromagnetic setup       |
|     may break the symmetry of the crystal, in particular it may rule        |
|     out finding an antiferromagnetic solution. Thence, we recommend         |
|     setting the initial magnetic moment manually or verifying carefully     |
|     that this magnetic setup is desired.                                    |
|                                                                             |
 -----------------------------------------------------------------------------

 -----------------------------------------------------------------------------
|                                                                             |
|           W    W    AA    RRRRR   N    N  II  N    N   GGGG   !!!           |
|           W    W   A  A   R    R  NN   N  II  NN   N  G    G  !!!           |
|           W    W  A    A  R    R  N N  N  II  N N  N  G       !!!           |
|           W WW W  AAAAAA  RRRRR   N  N N  II  N  N N  G  GGG   !            |
|           WW  WW  A    A  R   R   N   NN  II  N   NN  G    G                |
|           W    W  A    A  R    R  N    N  II  N    N   GGGG   !!!           |
|                                                                             |
|     You use a magnetic or noncollinear calculation, but did not specify     |
|     the initial magnetic moment with the MAGMOM tag. Note that a            |
|     default of 1 will be used for all atoms. This ferromagnetic setup       |
|     may break the symmetry of the crystal, in particular it may rule        |
|     out finding an antiferromagnetic solution. Thence, we recommend         |
|     setting the initial magnetic moment manually or verifying carefully     |
|     that this magnetic setup is desired.                                    |
|                                                                             |
 -----------------------------------------------------------------------------

 -----------------------------------------------------------------------------
|                                                                             |
|           W    W    AA    RRRRR   N    N  II  N    N   GGGG   !!!           |
|           W    W   A  A   R    R  NN   N  II  NN   N  G    G  !!!           |
|           W    W  A    A  R    R  N N  N  II  N N  N  G       !!!           |
|           W WW W  AAAAAA  RRRRR   N  N N  II  N  N N  G  GGG   !            |
|           WW  WW  A    A  R   R   N   NN  II  N   NN  G    G                |
|           W    W  A    A  R    R  N    N  II  N    N   GGGG   !!!           |
|                                                                             |
|     You use a magnetic or noncollinear calculation, but did not specify     |
|     the initial magnetic moment with the MAGMOM tag. Note that a            |
|     default of 1 will be used for all atoms. This ferromagnetic setup       |
|     may break the symmetry of the crystal, in particular it may rule        |
|     out finding an antiferromagnetic solution. Thence, we recommend         |
|     setting the initial magnetic moment manually or verifying carefully     |
|     that this magnetic setup is desired.                                    |
|                                                                             |
 -----------------------------------------------------------------------------

 -----------------------------------------------------------------------------
|                                                                             |
|           W    W    AA    RRRRR   N    N  II  N    N   GGGG   !!!           |
|           W    W   A  A   R    R  NN   N  II  NN   N  G    G  !!!           |
|           W    W  A    A  R    R  N N  N  II  N N  N  G       !!!           |
|           W WW W  AAAAAA  RRRRR   N  N N  II  N  N N  G  GGG   !            |
|           WW  WW  A    A  R   R   N   NN  II  N   NN  G    G                |
|           W    W  A    A  R    R  N    N  II  N    N   GGGG   !!!           |
|                                                                             |
|     You use a magnetic or noncollinear calculation, but did not specify     |
|     the initial magnetic moment with the MAGMOM tag. Note that a            |
|     default of 1 will be used for all atoms. This ferromagnetic setup       |
|     may break the symmetry of the crystal, in particular it may rule        |
|     out finding an antiferromagnetic solution. Thence, we recommend         |
|     setting the initial magnetic moment manually or verifying carefully     |
|     that this magnetic setup is desired.                                    |
|                                                                             |
 -----------------------------------------------------------------------------

 scaLAPACK will be used
 scaLAPACK will be used
 scaLAPACK will be used
 scaLAPACK will be used
 LDA part: xc-table for Pade appr. of Perdew
 LDA part: xc-table for Pade appr. of Perdew
 LDA part: xc-table for Pade appr. of Perdew
 LDA part: xc-table for Pade appr. of Perdew
 POSCAR, INCAR and KPOINTS ok, starting setup
 FFT: planning ...
 WAVECAR not read
 entering main loop
 POSCAR, INCAR and KPOINTS ok, starting setup
 POSCAR, INCAR and KPOINTS ok, starting setup
 FFT: planning ...
 FFT: planning ...
 WAVECAR not read
 WAVECAR not read
 entering main loop
 entering main loop
 POSCAR, INCAR and KPOINTS ok, starting setup
       N       E                     dE             d eps       ncg     rms          rms(c)
 FFT: planning ...
 WAVECAR not read
DAV:   1    -0.212478060755E+01   -0.21248E+01   -0.97017E+02    24   0.153E+02
 entering main loop
DAV:   2    -0.332578672069E+01   -0.12010E+01   -0.10971E+01    36   0.118E+01
DAV:   3    -0.338991072196E+01   -0.64124E-01   -0.27553E-01    24   0.253E+00
DAV:   4    -0.339074438905E+01   -0.83367E-03   -0.82917E-03    24   0.303E-01
DAV:   5    -0.339076437601E+01   -0.19987E-04   -0.19985E-04    18   0.453E-02    0.558E+00
DAV:   6    -0.454196891874E+01   -0.11512E+01   -0.53657E+00    36   0.111E+01    0.203E+00
DAV:   7    -0.478124358370E+01   -0.23927E+00   -0.25089E-01    24   0.421E+00    0.150E+00
DAV:   8    -0.481344385812E+01   -0.32200E-01   -0.51731E-02    48   0.207E+00    0.764E-01
       N       E                     dE             d eps       ncg     rms          rms(c)
       N       E                     dE             d eps       ncg     rms          rms(c)
DAV:   9    -0.485711744798E+01   -0.43674E-01   -0.87936E-02    30   0.228E+00DAV:   1    -0.212478060755E+01   -0.21248E+01   -0.97017E+02    24   0.153E+02
DAV:   1    -0.212478060755E+01   -0.21248E+01   -0.97017E+02    24   0.153E+02
    0.387E-01
DAV:   2    -0.332578672069E+01   -0.12010E+01   -0.10971E+01    36   0.118E+01DAV:   2    -0.332578672069E+01   -0.12010E+01   -0.10971E+01    36   0.118E+01

DAV:   3    -0.338991072196E+01   -0.64124E-01   -0.27553E-01    24   0.253E+00
DAV:   3    -0.338991072196E+01   -0.64124E-01   -0.27553E-01    24   0.253E+00
DAV:  10    -0.486518783658E+01   -0.80704E-02   -0.62659E-03    24   0.731E-01    0.866E-02
       N       E                     dE             d eps       ncg     rms          rms(c)
DAV:   4    -0.339074438905E+01   -0.83367E-03   -0.82917E-03    24   0.303E-01DAV:   4    -0.339074438905E+01   -0.83367E-03   -0.82917E-03    24   0.303E-01

DAV:   5    -0.339076437601E+01   -0.19987E-04   -0.19985E-04    18   0.453E-02DAV:   5    -0.339076437601E+01   -0.19987E-04   -0.19985E-04    18   0.453E-02    0.558E+00
    0.558E+00
DAV:  11    -0.486545614316E+01   -0.26831E-03   -0.25159E-04    36   0.136E-01    0.299E-02
DAV:   6    -0.454196891874E+01   -0.11512E+01   -0.53657E+00    36   0.111E+01DAV:   6    -0.454196891874E+01   -0.11512E+01   -0.53657E+00    36   0.111E+01    0.203E+00
    0.203E+00
DAV:   1    -0.212478060755E+01   -0.21248E+01   -0.97017E+02    24   0.153E+02
DAV:  12    -0.486548219847E+01   -0.26055E-04   -0.47526E-05    12   0.515E-02
DAV:   2    -0.332578672069E+01   -0.12010E+01   -0.10971E+01    36   0.118E+01
DAV:   3    -0.338991072196E+01   -0.64124E-01   -0.27553E-01    24   0.253E+00
DAV:   4    -0.339074438905E+01   -0.83367E-03   -0.82917E-03    24   0.303E-01
DAV:   7    -0.478124358370E+01   -0.23927E+00   -0.25089E-01    24   0.421E+00DAV:   7    -0.478124358370E+01   -0.23927E+00   -0.25089E-01    24   0.421E+00DAV:   5    -0.339076437601E+01   -0.19987E-04   -0.19985E-04    18   0.453E-02    0.150E+00
    0.150E+00
    0.558E+00
DAV:   8    -0.481344385812E+01   -0.32200E-01   -0.51731E-02    48   0.207E+00DAV:   8    -0.481344385812E+01   -0.32200E-01   -0.51731E-02    48   0.207E+00DAV:   6    -0.454196891874E+01   -0.11512E+01   -0.53657E+00    36   0.111E+01    0.764E-01
    0.764E-01
    0.203E+00
DAV:   7    -0.478124358370E+01   -0.23927E+00   -0.25089E-01    24   0.421E+00DAV:   9    -0.485711744798E+01   -0.43674E-01   -0.87936E-02    30   0.228E+00DAV:   9    -0.485711744798E+01   -0.43674E-01   -0.87936E-02    30   0.228E+00    0.150E+00
    0.387E-01
    0.387E-01
   1 F= -.48654822E+01 E0= -.48090628E+01  d E =-.486548E+01  mag=     0.9998
 curvature:   0.00 expect dE= 0.000E+00 dE for cont linesearch  0.000E+00
 trial: gam= 0.00000 g(F)=  0.827E-46 g(S)=  0.000E+00 ort = 0.000E+00 (trialstep = 0.100E+01)
 search vector abs. value=  0.100E-09
 reached required accuracy - stopping structural energy minimisation
DAV:  10    -0.486518783658E+01   -0.80704E-02   -0.62659E-03    24   0.731E-01DAV:  10    -0.486518783658E+01   -0.80704E-02   -0.62659E-03    24   0.731E-01    0.866E-02
    0.866E-02
DAV:   8    -0.481344385812E+01   -0.32200E-01   -0.51731E-02    48   0.207E+00    0.764E-01
DAV:  11    -0.486545614316E+01   -0.26831E-03   -0.25159E-04    36   0.136E-01DAV:  11    -0.486545614316E+01   -0.26831E-03   -0.25159E-04    36   0.136E-01DAV:   9    -0.485711744798E+01   -0.43674E-01   -0.87936E-02    30   0.228E+00    0.299E-02
    0.299E-02
    0.387E-01
DAV:  12    -0.486548219847E+01   -0.26055E-04   -0.47526E-05    12   0.515E-02DAV:  12    -0.486548219847E+01   -0.26055E-04   -0.47526E-05    12   0.515E-02

DAV:  10    -0.486518783658E+01   -0.80704E-02   -0.62659E-03    24   0.731E-01    0.866E-02
DAV:  11    -0.486545614316E+01   -0.26831E-03   -0.25159E-04    36   0.136E-01    0.299E-02
DAV:  12    -0.486548219847E+01   -0.26055E-04   -0.47526E-05    12   0.515E-02
   1 F= -.48654822E+01 E0= -.48090628E+01  d E =-.486548E+01  mag=     0.9998
 curvature:   0.00 expect dE= 0.000E+00 dE for cont linesearch  0.000E+00
 trial: gam= 0.00000 g(F)=  0.827E-46 g(S)=  0.000E+00 ort = 0.000E+00 (trialstep = 0.100E+01)
 search vector abs. value=  0.100E-09
 reached required accuracy - stopping structural energy minimisation
   1 F= -.48654822E+01 E0= -.48090628E+01  d E =-.486548E+01  mag=     0.9998
 curvature:   0.00 expect dE= 0.000E+00 dE for cont linesearch  0.000E+00
 trial: gam= 0.00000 g(F)=  0.827E-46 g(S)=  0.000E+00 ort = 0.000E+00 (trialstep = 0.100E+01)
 search vector abs. value=  0.100E-09
 reached required accuracy - stopping structural energy minimisation
   1 F= -.48654822E+01 E0= -.48090628E+01  d E =-.486548E+01  mag=     0.9998
 curvature:   0.00 expect dE= 0.000E+00 dE for cont linesearch  0.000E+00
 trial: gam= 0.00000 g(F)=  0.827E-46 g(S)=  0.000E+00 ort = 0.000E+00 (trialstep = 0.100E+01)
 search vector abs. value=  0.100E-09
 reached required accuracy - stopping structural energy minimisation
 writing wavefunctions
 writing wavefunctions
 writing wavefunctions
 writing wavefunctions
