 running on    1 total cores
 running on    1 total cores
 running on    1 total cores
 running on    1 total cores
 distrk:  each k-point on    1 cores,    1 groups
 distr:  one band on    1 cores,    1 groups
 distrk:  each k-point on    1 cores,    1 groups
 distr:  one band on    1 cores,    1 groups
 distrk:  each k-point on    1 cores,    1 groups
 distr:  one band on    1 cores,    1 groups
 distrk:  each k-point on    1 cores,    1 groups
 distr:  one band on    1 cores,    1 groups
 vasp.6.2.1 16May21 (build Dec 20 2021 17:15:01) gamma-only                      
 vasp.6.2.1 16May21 (build Dec 20 2021 17:15:01) gamma-only                      
 vasp.6.2.1 16May21 (build Dec 20 2021 17:15:01) gamma-only                      
 vasp.6.2.1 16May21 (build Dec 20 2021 17:15:01) gamma-only                      
 POSCAR found type information on POSCAR BeH 
 POSCAR found :  2 types and       2 ions
 POSCAR found type information on POSCAR BeH 
 POSCAR found :  2 types and       2 ions
 POSCAR found type information on POSCAR BeH 
 POSCAR found :  2 types and       2 ions
 -----------------------------------------------------------------------------
|                                                                             |
|           W    W    AA    RRRRR   N    N  II  N    N   GGGG   !!!           |
|           W    W   A  A   R    R  NN   N  II  NN   N  G    G  !!!           |
|           W    W  A    A  R    R  N N  N  II  N N  N  G       !!!           |
|           W WW W  AAAAAA  RRRRR   N  N N  II  N  N N  G  GGG   !            |
|           WW  WW  A    A  R   R   N   NN  II  N   NN  G    G                |
|           W    W  A    A  R    R  N    N  II  N    N   GGGG   !!!           |
|                                                                             |
|     You use a magnetic or noncollinear calculation, but did not specify     |
|     the initial magnetic moment with the MAGMOM tag. Note that a            |
|     default of 1 will be used for all atoms. This ferromagnetic setup       |
|     may break the symmetry of the crystal, in particular it may rule        |
|     out finding an antiferromagnetic solution. Thence, we recommend         |
|     setting the initial magnetic moment manually or verifying carefully     |
|     that this magnetic setup is desired.                                    |
|                                                                             |
 -----------------------------------------------------------------------------

 scaLAPACK will be used
 -----------------------------------------------------------------------------
|                                                                             |
|           W    W    AA    RRRRR   N    N  II  N    N   GGGG   !!!           |
|           W    W   A  A   R    R  NN   N  II  NN   N  G    G  !!!           |
|           W    W  A    A  R    R  N N  N  II  N N  N  G       !!!           |
|           W WW W  AAAAAA  RRRRR   N  N N  II  N  N N  G  GGG   !            |
|           WW  WW  A    A  R   R   N   NN  II  N   NN  G    G                |
|           W    W  A    A  R    R  N    N  II  N    N   GGGG   !!!           |
|                                                                             |
|     You use a magnetic or noncollinear calculation, but did not specify     |
|     the initial magnetic moment with the MAGMOM tag. Note that a            |
|     default of 1 will be used for all atoms. This ferromagnetic setup       |
|     may break the symmetry of the crystal, in particular it may rule        |
|     out finding an antiferromagnetic solution. Thence, we recommend         |
|     setting the initial magnetic moment manually or verifying carefully     |
|     that this magnetic setup is desired.                                    |
|                                                                             |
 -----------------------------------------------------------------------------

 scaLAPACK will be used
 -----------------------------------------------------------------------------
|                                                                             |
|           W    W    AA    RRRRR   N    N  II  N    N   GGGG   !!!           |
|           W    W   A  A   R    R  NN   N  II  NN   N  G    G  !!!           |
|           W    W  A    A  R    R  N N  N  II  N N  N  G       !!!           |
|           W WW W  AAAAAA  RRRRR   N  N N  II  N  N N  G  GGG   !            |
|           WW  WW  A    A  R   R   N   NN  II  N   NN  G    G                |
|           W    W  A    A  R    R  N    N  II  N    N   GGGG   !!!           |
|                                                                             |
|     You use a magnetic or noncollinear calculation, but did not specify     |
|     the initial magnetic moment with the MAGMOM tag. Note that a            |
|     default of 1 will be used for all atoms. This ferromagnetic setup       |
|     may break the symmetry of the crystal, in particular it may rule        |
|     out finding an antiferromagnetic solution. Thence, we recommend         |
|     setting the initial magnetic moment manually or verifying carefully     |
|     that this magnetic setup is desired.                                    |
|                                                                             |
 -----------------------------------------------------------------------------

 scaLAPACK will be used
 POSCAR found type information on POSCAR BeH 
 POSCAR found :  2 types and       2 ions
 -----------------------------------------------------------------------------
|                                                                             |
|           W    W    AA    RRRRR   N    N  II  N    N   GGGG   !!!           |
|           W    W   A  A   R    R  NN   N  II  NN   N  G    G  !!!           |
|           W    W  A    A  R    R  N N  N  II  N N  N  G       !!!           |
|           W WW W  AAAAAA  RRRRR   N  N N  II  N  N N  G  GGG   !            |
|           WW  WW  A    A  R   R   N   NN  II  N   NN  G    G                |
|           W    W  A    A  R    R  N    N  II  N    N   GGGG   !!!           |
|                                                                             |
|     You use a magnetic or noncollinear calculation, but did not specify     |
|     the initial magnetic moment with the MAGMOM tag. Note that a            |
|     default of 1 will be used for all atoms. This ferromagnetic setup       |
|     may break the symmetry of the crystal, in particular it may rule        |
|     out finding an antiferromagnetic solution. Thence, we recommend         |
|     setting the initial magnetic moment manually or verifying carefully     |
|     that this magnetic setup is desired.                                    |
|                                                                             |
 -----------------------------------------------------------------------------

 scaLAPACK will be used
 LDA part: xc-table for Pade appr. of Perdew
 LDA part: xc-table for Pade appr. of Perdew
 LDA part: xc-table for Pade appr. of Perdew
 LDA part: xc-table for Pade appr. of Perdew
 found WAVECAR, reading the header
 found WAVECAR, reading the header
 found WAVECAR, reading the header
 found WAVECAR, reading the header
 POSCAR, INCAR and KPOINTS ok, starting setup
 FFT: planning ...
 reading WAVECAR
 the WAVECAR file was read successfully
 initial charge from wavefunction
 entering main loop
       N       E                     dE             d eps       ncg     rms          rms(c)
 POSCAR, INCAR and KPOINTS ok, starting setup
 FFT: planning ...
 reading WAVECAR
 the WAVECAR file was read successfully
 initial charge from wavefunction
 entering main loop
       N       E                     dE             d eps       ncg     rms          rms(c)
DAV:   1    -0.486549381034E+01   -0.48655E+01   -0.98190E-06    12   0.322E-02    0.157E-03
DAV:   2    -0.486549391090E+01   -0.10056E-06   -0.79121E-07    12   0.872E-03
 POSCAR, INCAR and KPOINTS ok, starting setup
 FFT: planning ...
 reading WAVECAR
 the WAVECAR file was read successfully
   1 F= -.48654939E+01 E0= -.48090746E+01  d E =-.486549E+01  mag=     1.0000
 curvature:   0.00 expect dE= 0.000E+00 dE for cont linesearch  0.000E+00
 trial: gam= 0.00000 g(F)=  0.610E-46 g(S)=  0.921E+01 ort = 0.000E+00 (trialstep = 0.100E+01)
 search vector abs. value=  0.921E+01
 initial charge from wavefunction
 entering main loop
DAV:   1    -0.486549381034E+01   -0.48655E+01   -0.98190E-06    12   0.322E-02    0.157E-03
       N       E                     dE             d eps       ncg     rms          rms(c)
DAV:   2    -0.486549391090E+01   -0.10056E-06   -0.79121E-07    12   0.872E-03
 POSCAR, INCAR and KPOINTS ok, starting setup
 FFT: planning ...
   1 F= -.48654939E+01 E0= -.48090746E+01  d E =-.486549E+01  mag=     1.0000
 curvature:   0.00 expect dE= 0.000E+00 dE for cont linesearch  0.000E+00
 trial: gam= 0.00000 g(F)=  0.610E-46 g(S)=  0.921E+01 ort = 0.000E+00 (trialstep = 0.100E+01)
 search vector abs. value=  0.921E+01
 reading WAVECAR
 the WAVECAR file was read successfully
 initial charge from wavefunction
 entering main loop
       N       E                     dE             d eps       ncg     rms          rms(c)
DAV:   1    -0.486549381034E+01   -0.48655E+01   -0.98190E-06    12   0.322E-02    0.157E-03
DAV:   2    -0.486549391090E+01   -0.10056E-06   -0.79121E-07    12   0.872E-03
   1 F= -.48654939E+01 E0= -.48090746E+01  d E =-.486549E+01  mag=     1.0000
 curvature:   0.00 expect dE= 0.000E+00 dE for cont linesearch  0.000E+00
 trial: gam= 0.00000 g(F)=  0.610E-46 g(S)=  0.921E+01 ort = 0.000E+00 (trialstep = 0.100E+01)
 search vector abs. value=  0.921E+01
DAV:   1    -0.486549381034E+01   -0.48655E+01   -0.98190E-06    12   0.322E-02    0.157E-03
DAV:   2    -0.486549391090E+01   -0.10056E-06   -0.79121E-07    12   0.872E-03
   1 F= -.48654939E+01 E0= -.48090746E+01  d E =-.486549E+01  mag=     1.0000
 curvature:   0.00 expect dE= 0.000E+00 dE for cont linesearch  0.000E+00
 trial: gam= 0.00000 g(F)=  0.610E-46 g(S)=  0.921E+01 ort = 0.000E+00 (trialstep = 0.100E+01)
 search vector abs. value=  0.921E+01
 bond charge predicted
       N       E                     dE             d eps       ncg     rms          rms(c)
DAV:   1    -0.105107510784E+02   -0.56453E+01   -0.33081E+01    42   0.466E+01    0.208E+00
DAV:   2    -0.105639904542E+02   -0.53239E-01   -0.91539E-01    30   0.616E+00    0.116E+00
DAV:   3    -0.106381971366E+02   -0.74207E-01   -0.36325E-01    24   0.533E+00    0.737E-01
DAV:   4    -0.106609870971E+02   -0.22790E-01   -0.92437E-02    24   0.284E+00    0.132E-01
DAV:   5    -0.106594218733E+02    0.15652E-02   -0.62647E-03    24   0.442E-01    0.569E-02
DAV:   6    -0.106590368317E+02    0.38504E-03   -0.53209E-04    24   0.181E-01    0.289E-02
DAV:   7    -0.106588499219E+02    0.18691E-03   -0.58868E-05    18   0.544E-02    0.894E-03
DAV:   8    -0.106588536881E+02   -0.37662E-05   -0.93463E-06    12   0.348E-02
 bond charge predicted
   2 F= -.10658854E+02 E0= -.10602435E+02  d E =-.579336E+01  mag=     1.0000
 trial-energy change:   -5.793360  1 .order   -4.677588   -9.210688   -0.144487
 step:   1.0091(harm=  1.0159)  dis= 0.00000  next Energy=   -10.659514 (dE=-0.579E+01)
 bond charge predicted
 bond charge predicted
       N       E                     dE             d eps       ncg     rms          rms(c)
DAV:   1    -0.105107510784E+02   -0.56453E+01   -0.33081E+01    42   0.466E+01    0.208E+00
DAV:   2    -0.105639904542E+02   -0.53239E-01   -0.91539E-01    30   0.616E+00    0.116E+00
 bond charge predicted
DAV:   3    -0.106381971366E+02   -0.74207E-01   -0.36325E-01    24   0.533E+00    0.737E-01
DAV:   4    -0.106609870971E+02   -0.22790E-01   -0.92437E-02    24   0.284E+00    0.132E-01
DAV:   5    -0.106594218733E+02    0.15652E-02   -0.62647E-03    24   0.442E-01    0.569E-02
DAV:   6    -0.106590368317E+02    0.38504E-03   -0.53209E-04    24   0.181E-01    0.289E-02
DAV:   7    -0.106588499219E+02    0.18691E-03   -0.58868E-05    18   0.544E-02    0.894E-03
DAV:   8    -0.106588536881E+02   -0.37662E-05   -0.93463E-06    12   0.348E-02
       N       E                     dE             d eps       ncg     rms          rms(c)
       N       E                     dE             d eps       ncg     rms          rms(c)
DAV:   1    -0.105107510784E+02   -0.56453E+01   -0.33081E+01    42   0.466E+01    0.208E+00
DAV:   1    -0.105107510784E+02   -0.56453E+01   -0.33081E+01    42   0.466E+01    0.208E+00
DAV:   2    -0.105639904542E+02   -0.53239E-01   -0.91539E-01    30   0.616E+00    0.116E+00
DAV:   3    -0.106381971366E+02   -0.74207E-01   -0.36325E-01    24   0.533E+00DAV:   2    -0.105639904542E+02   -0.53239E-01   -0.91539E-01    30   0.616E+00    0.116E+00
    0.737E-01
   2 F= -.10658854E+02 E0= -.10602435E+02  d E =-.579336E+01  mag=     1.0000
 trial-energy change:   -5.793360  1 .order   -4.677588   -9.210688   -0.144487
 step:   1.0091(harm=  1.0159)  dis= 0.00000  next Energy=   -10.659514 (dE=-0.579E+01)
DAV:   4    -0.106609870971E+02   -0.22790E-01   -0.92437E-02    24   0.284E+00    0.132E-01
DAV:   3    -0.106381971366E+02   -0.74207E-01   -0.36325E-01    24   0.533E+00    0.737E-01
DAV:   5    -0.106594218733E+02    0.15652E-02   -0.62647E-03    24   0.442E-01    0.569E-02
DAV:   4    -0.106609870971E+02   -0.22790E-01   -0.92437E-02    24   0.284E+00    0.132E-01
DAV:   6    -0.106590368317E+02    0.38504E-03   -0.53209E-04    24   0.181E-01    0.289E-02
DAV:   5    -0.106594218733E+02    0.15652E-02   -0.62647E-03    24   0.442E-01    0.569E-02
       N       E                     dE             d eps       ncg     rms          rms(c)
DAV:   7    -0.106588499219E+02    0.18691E-03   -0.58868E-05    18   0.544E-02    0.894E-03
DAV:   6    -0.106590368317E+02    0.38504E-03   -0.53209E-04    24   0.181E-01    0.289E-02
DAV:   8    -0.106588536881E+02   -0.37662E-05   -0.93463E-06    12   0.348E-02
DAV:   7    -0.106588499219E+02    0.18691E-03   -0.58868E-05    18   0.544E-02    0.894E-03
DAV:   1    -0.106678885363E+02   -0.90386E-02   -0.36275E-03    24   0.447E-01    0.291E-02
DAV:   8    -0.106588536881E+02   -0.37662E-05   -0.93463E-06    12   0.348E-02
DAV:   2    -0.106678911663E+02   -0.26300E-05   -0.79243E-05    18   0.520E-02
   2 F= -.10658854E+02 E0= -.10602435E+02  d E =-.579336E+01  mag=     1.0000
 trial-energy change:   -5.793360  1 .order   -4.677588   -9.210688   -0.144487
 step:   1.0091(harm=  1.0159)  dis= 0.00000  next Energy=   -10.659514 (dE=-0.579E+01)
   2 F= -.10658854E+02 E0= -.10602435E+02  d E =-.579336E+01  mag=     1.0000
 trial-energy change:   -5.793360  1 .order   -4.677588   -9.210688   -0.144487
 step:   1.0091(harm=  1.0159)  dis= 0.00000  next Energy=   -10.659514 (dE=-0.579E+01)
   3 F= -.10667891E+02 E0= -.10611472E+02  d E =-.580240E+01  mag=     1.0000
 curvature:  -0.42 expect dE=-0.283E+00 dE for cont linesearch -0.290E-04
 trial: gam= 0.07115 g(F)=  0.172E-45 g(S)=  0.681E+00 ort = 0.254E-01 (trialstep = 0.100E+01)
 search vector abs. value=  0.731E+00
 bond charge predicted
       N       E                     dE             d eps       ncg     rms          rms(c)
DAV:   1    -0.106678885363E+02   -0.90386E-02   -0.36275E-03    24   0.447E-01    0.291E-02
DAV:   2    -0.106678911663E+02   -0.26300E-05   -0.79243E-05    18   0.520E-02
   3 F= -.10667891E+02 E0= -.10611472E+02  d E =-.580240E+01  mag=     1.0000
 curvature:  -0.42 expect dE=-0.283E+00 dE for cont linesearch -0.290E-04
 trial: gam= 0.07115 g(F)=  0.172E-45 g(S)=  0.681E+00 ort = 0.254E-01 (trialstep = 0.100E+01)
 search vector abs. value=  0.731E+00
 bond charge predicted
 bond charge predicted
 bond charge predicted
 bond charge predicted
       N       E                     dE             d eps       ncg     rms          rms(c)
       N       E                     dE             d eps       ncg     rms          rms(c)
       N       E                     dE             d eps       ncg     rms          rms(c)
       N       E                     dE             d eps       ncg     rms          rms(c)
DAV:   1    -0.111495803112E+02   -0.48169E+00   -0.98664E-01    24   0.815E+00    0.648E-01
DAV:   1    -0.111495803112E+02   -0.48169E+00   -0.98664E-01    24   0.815E+00    0.648E-01
DAV:   1    -0.106678885363E+02   -0.90386E-02   -0.36275E-03    24   0.447E-01    0.291E-02
DAV:   1    -0.106678885363E+02   -0.90386E-02   -0.36275E-03    24   0.447E-01    0.291E-02
DAV:   2    -0.111522302367E+02   -0.26499E-02   -0.39512E-02    24   0.112E+00    0.330E-01
DAV:   2    -0.111522302367E+02   -0.26499E-02   -0.39512E-02    24   0.112E+00    0.330E-01
DAV:   2    -0.106678911663E+02   -0.26300E-05   -0.79243E-05    18   0.520E-02
DAV:   3    -0.111366769762E+02    0.15553E-01   -0.19731E-02    24   0.933E-01    0.189E-01
DAV:   3    -0.111366769762E+02    0.15553E-01   -0.19731E-02    24   0.933E-01DAV:   2    -0.106678911663E+02   -0.26300E-05   -0.79243E-05    18   0.520E-02
    0.189E-01
DAV:   4    -0.111362553231E+02    0.42165E-03   -0.55951E-03    24   0.566E-01    0.729E-02
DAV:   4    -0.111362553231E+02    0.42165E-03   -0.55951E-03    24   0.566E-01    0.729E-02
DAV:   5    -0.111338727032E+02    0.23826E-02   -0.11539E-03    18   0.161E-01    0.244E-02
DAV:   5    -0.111338727032E+02    0.23826E-02   -0.11539E-03    18   0.161E-01    0.244E-02
   3 F= -.10667891E+02 E0= -.10611472E+02  d E =-.580240E+01  mag=     1.0000
   3 F= -.10667891E+02 E0= -.10611472E+02  d E =-.580240E+01  mag=     1.0000
 curvature:  -0.42 expect dE=-0.283E+00 dE for cont linesearch -0.290E-04
 trial: gam= 0.07115 g(F)=  0.172E-45 g(S)=  0.681E+00 ort = 0.254E-01 (trialstep = 0.100E+01)
 search vector abs. value=  0.731E+00
 curvature:  -0.42 expect dE=-0.283E+00 dE for cont linesearch -0.290E-04
 trial: gam= 0.07115 g(F)=  0.172E-45 g(S)=  0.681E+00 ort = 0.254E-01 (trialstep = 0.100E+01)
 search vector abs. value=  0.731E+00
DAV:   6    -0.111339510062E+02   -0.78303E-04   -0.78877E-05    18   0.761E-02
DAV:   6    -0.111339510062E+02   -0.78303E-04   -0.78877E-05    18   0.761E-02
   4 F= -.11133951E+02 E0= -.11077532E+02  d E =-.466060E+00  mag=     1.0000
 trial-energy change:   -0.466060  1 .order   -0.434962   -0.683759   -0.186165
 step:   1.2567(harm=  1.3766)  dis= 0.00000  next Energy=   -11.158147 (dE=-0.490E+00)
   4 F= -.11133951E+02 E0= -.11077532E+02  d E =-.466060E+00  mag=     1.0000
 trial-energy change:   -0.466060  1 .order   -0.434962   -0.683759   -0.186165
 step:   1.2567(harm=  1.3766)  dis= 0.00000  next Energy=   -11.158147 (dE=-0.490E+00)
 bond charge predicted
       N       E                     dE             d eps       ncg     rms          rms(c)
 bond charge predicted
 bond charge predicted
 bond charge predicted
DAV:   1    -0.111495803112E+02   -0.48169E+00   -0.98664E-01    24   0.815E+00    0.648E-01
DAV:   2    -0.111522302367E+02   -0.26499E-02   -0.39512E-02    24   0.112E+00    0.330E-01
DAV:   3    -0.111366769762E+02    0.15553E-01   -0.19731E-02    24   0.933E-01    0.189E-01
DAV:   4    -0.111362553231E+02    0.42165E-03   -0.55951E-03    24   0.566E-01    0.729E-02
DAV:   5    -0.111338727032E+02    0.23826E-02   -0.11539E-03    18   0.161E-01    0.244E-02
DAV:   6    -0.111339510062E+02   -0.78303E-04   -0.78877E-05    18   0.761E-02
   4 F= -.11133951E+02 E0= -.11077532E+02  d E =-.466060E+00  mag=     1.0000
 trial-energy change:   -0.466060  1 .order   -0.434962   -0.683759   -0.186165
 step:   1.2567(harm=  1.3766)  dis= 0.00000  next Energy=   -11.158147 (dE=-0.490E+00)
 bond charge predicted
       N       E                     dE             d eps       ncg     rms          rms(c)
       N       E                     dE             d eps       ncg     rms          rms(c)
       N       E                     dE             d eps       ncg     rms          rms(c)
DAV:   1    -0.111614158774E+02   -0.27543E-01   -0.73756E-02    24   0.216E+00DAV:   1    -0.111614158774E+02   -0.27543E-01   -0.73756E-02    24   0.216E+00    0.194E-01
    0.194E-01
DAV:   1    -0.111495803112E+02   -0.48169E+00   -0.98664E-01    24   0.815E+00    0.648E-01
DAV:   2    -0.111614569942E+02   -0.41117E-04   -0.28257E-03    24   0.307E-01DAV:   2    -0.111614569942E+02   -0.41117E-04   -0.28257E-03    24   0.307E-01    0.100E-01
    0.100E-01
DAV:   3    -0.111604888332E+02    0.96816E-03   -0.15653E-03    24   0.259E-01DAV:   3    -0.111604888332E+02    0.96816E-03   -0.15653E-03    24   0.259E-01DAV:   2    -0.111522302367E+02   -0.26499E-02   -0.39512E-02    24   0.112E+00    0.330E-01
    0.543E-02
    0.543E-02
DAV:   3    -0.111366769762E+02    0.15553E-01   -0.19731E-02    24   0.933E-01DAV:   4    -0.111602821109E+02    0.20672E-03   -0.45488E-04    24   0.160E-01    0.215E-02
DAV:   4    -0.111602821109E+02    0.20672E-03   -0.45488E-04    24   0.160E-01    0.215E-02
DAV:   5    -0.111601082372E+02    0.17387E-03   -0.65178E-05    18   0.392E-02DAV:   5    -0.111601082372E+02    0.17387E-03   -0.65178E-05    18   0.392E-02    0.988E-03
    0.988E-03
    0.189E-01
DAV:   6    -0.111601153571E+02   -0.71198E-05   -0.43398E-06    12   0.196E-02
DAV:   6    -0.111601153571E+02   -0.71198E-05   -0.43398E-06    12   0.196E-02
DAV:   4    -0.111362553231E+02    0.42165E-03   -0.55951E-03    24   0.566E-01    0.729E-02
DAV:   5    -0.111338727032E+02    0.23826E-02   -0.11539E-03    18   0.161E-01    0.244E-02
DAV:   6    -0.111339510062E+02   -0.78303E-04   -0.78877E-05    18   0.761E-02
   5 F= -.11160115E+02 E0= -.11103696E+02  d E =-.492224E+00  mag=     1.0000
 curvature:  -0.66 expect dE=-0.171E+00 dE for cont linesearch -0.470E-03
 trial: gam= 0.19216 g(F)=  0.704E-45 g(S)=  0.258E+00 ort = 0.228E-01 (trialstep = 0.105E+01)
 search vector abs. value=  0.293E+00
   4 F= -.11133951E+02 E0= -.11077532E+02  d E =-.466060E+00  mag=     1.0000
 trial-energy change:   -0.466060  1 .order   -0.434962   -0.683759   -0.186165
 step:   1.2567(harm=  1.3766)  dis= 0.00000  next Energy=   -11.158147 (dE=-0.490E+00)
       N       E                     dE             d eps       ncg     rms          rms(c)
DAV:   1    -0.111614158774E+02   -0.27543E-01   -0.73756E-02    24   0.216E+00    0.194E-01
   5 F= -.11160115E+02 E0= -.11103696E+02  d E =-.492224E+00  mag=     1.0000
 curvature:  -0.66 expect dE=-0.171E+00 dE for cont linesearch -0.470E-03
 trial: gam= 0.19216 g(F)=  0.704E-45 g(S)=  0.258E+00 ort = 0.228E-01 (trialstep = 0.105E+01)
 search vector abs. value=  0.293E+00
DAV:   2    -0.111614569942E+02   -0.41117E-04   -0.28257E-03    24   0.307E-01    0.100E-01
DAV:   3    -0.111604888332E+02    0.96816E-03   -0.15653E-03    24   0.259E-01    0.543E-02
DAV:   4    -0.111602821109E+02    0.20672E-03   -0.45488E-04    24   0.160E-01    0.215E-02
DAV:   5    -0.111601082372E+02    0.17387E-03   -0.65178E-05    18   0.392E-02    0.988E-03
DAV:   6    -0.111601153571E+02   -0.71198E-05   -0.43398E-06    12   0.196E-02
   5 F= -.11160115E+02 E0= -.11103696E+02  d E =-.492224E+00  mag=     1.0000
 curvature:  -0.66 expect dE=-0.171E+00 dE for cont linesearch -0.470E-03
 trial: gam= 0.19216 g(F)=  0.704E-45 g(S)=  0.258E+00 ort = 0.228E-01 (trialstep = 0.105E+01)
 search vector abs. value=  0.293E+00
 writing wavefunctions
 writing wavefunctions
 writing wavefunctions
 bond charge predicted
       N       E                     dE             d eps       ncg     rms          rms(c)
DAV:   1    -0.111614158774E+02   -0.27543E-01   -0.73756E-02    24   0.216E+00    0.194E-01
DAV:   2    -0.111614569942E+02   -0.41117E-04   -0.28257E-03    24   0.307E-01    0.100E-01
DAV:   3    -0.111604888332E+02    0.96816E-03   -0.15653E-03    24   0.259E-01    0.543E-02
DAV:   4    -0.111602821109E+02    0.20672E-03   -0.45488E-04    24   0.160E-01    0.215E-02
DAV:   5    -0.111601082372E+02    0.17387E-03   -0.65178E-05    18   0.392E-02    0.988E-03
DAV:   6    -0.111601153571E+02   -0.71198E-05   -0.43398E-06    12   0.196E-02
   5 F= -.11160115E+02 E0= -.11103696E+02  d E =-.492224E+00  mag=     1.0000
 curvature:  -0.66 expect dE=-0.171E+00 dE for cont linesearch -0.470E-03
 trial: gam= 0.19216 g(F)=  0.704E-45 g(S)=  0.258E+00 ort = 0.228E-01 (trialstep = 0.105E+01)
 search vector abs. value=  0.293E+00
 writing wavefunctions
