       N       E                     dE             d eps       ncg     rms          rms(c)
DAV:   1    -0.486549381034E+01   -0.48655E+01   -0.98190E-06    12   0.322E-02    0.157E-03
DAV:   2    -0.486549391090E+01   -0.10056E-06   -0.79121E-07    12   0.872E-03
   1 F= -.48654939E+01 E0= -.48090746E+01  d E =-.486549E+01  mag=     1.0000
       N       E                     dE             d eps       ncg     rms          rms(c)
DAV:   1    -0.105107510784E+02   -0.56453E+01   -0.33081E+01    42   0.466E+01    0.208E+00
DAV:   2    -0.105639904542E+02   -0.53239E-01   -0.91539E-01    30   0.616E+00    0.116E+00
DAV:   3    -0.106381971366E+02   -0.74207E-01   -0.36325E-01    24   0.533E+00    0.737E-01
DAV:   4    -0.106609870971E+02   -0.22790E-01   -0.92437E-02    24   0.284E+00    0.132E-01
DAV:   5    -0.106594218733E+02    0.15652E-02   -0.62647E-03    24   0.442E-01    0.569E-02
DAV:   6    -0.106590368317E+02    0.38504E-03   -0.53209E-04    24   0.181E-01    0.289E-02
DAV:   7    -0.106588499219E+02    0.18691E-03   -0.58868E-05    18   0.544E-02    0.894E-03
DAV:   8    -0.106588536881E+02   -0.37662E-05   -0.93463E-06    12   0.348E-02
   2 F= -.10658854E+02 E0= -.10602435E+02  d E =-.579336E+01  mag=     1.0000
       N       E                     dE             d eps       ncg     rms          rms(c)
DAV:   1    -0.106678885363E+02   -0.90386E-02   -0.36275E-03    24   0.447E-01    0.291E-02
DAV:   2    -0.106678911663E+02   -0.26300E-05   -0.79243E-05    18   0.520E-02
   3 F= -.10667891E+02 E0= -.10611472E+02  d E =-.580240E+01  mag=     1.0000
       N       E                     dE             d eps       ncg     rms          rms(c)
DAV:   1    -0.111495803112E+02   -0.48169E+00   -0.98664E-01    24   0.815E+00    0.648E-01
DAV:   2    -0.111522302367E+02   -0.26499E-02   -0.39512E-02    24   0.112E+00    0.330E-01
DAV:   3    -0.111366769762E+02    0.15553E-01   -0.19731E-02           N       E                     dE             d eps       ncg     rms          rms(c)
DAV:   1    -0.111495803112E+02   -0.48169E+00   -0.98664E-01    24   0.815E+00    0.648E-01
DAV:   2    -0.111522302367E+02   -0.26499E-02   -0.39512E-02    24   0.112E+00    0.330E-01
DAV:   3    -0.111366769762E+02    0.15553E-01   -0.19731E-02    24   0.933E-01    0.189E-01
D       N       E                     dE             d eps       ncg     rms          rms(c)
DAV:   1    -0.111614158774E+02   -0.27543E-01   -0.73756E-02    24   0.216E+00    0.194E-01
DAV:   2    -0.111614569942E+02   -0.41117E-04   -0.28257E-03    24   0.307E-01    0.100E-01
DAV:   3    -0.111604888332E+02    0.96816E-03   -0.15653E-03           N       E                     dE             d eps       ncg     rms          rms(c)
DAV:   1    -0.111614158774E+02   -0.27543E-01   -0.73756E-02    24   0.216E+00    0.194E-01
DAV:   2    -0.111614569942E+02   -0.41117E-04   -0.28257E-03    24   0.307E-01    0.100E-01
DAV:   3    -0.111604888332E+02    0.96816E-03   -0.15653E-03    24   0.259E-01    0.543E-02
D       N       E                     dE             d eps       ncg     rms          rms(c)
DAV:   1    -0.111614158774E+02   -0.27543E-01   -0.73756E-02    24   0.216E+00    0.194E-01
DAV:   2    -0.111614569942E+02   -0.41117E-04   -0.28257E-03    24   0.307E-01    0.100E-01
DAV:   3    -0.111604888332E+02    0.96816E-03   -0.15653E-03    24   0.259E-01    0.543E-02
DAV:   4    -0.111602821109E+02    0.20672E-03   -0.45488E-04    24   0.160E-01    0.215E-02
DAV:   5    -0.111601082372E+02    0.17387E-03   -0.65178E-05    18   0.392E-02    0.988E-03
DAV:   6    -0.111601153571E+02   -0.71198E-05   -0.43398E-06    12   0.196E-02
   5 F= -.11160115E+02 E0= -.11103696E+02  d E =-.492224E+00  mag=     1.0000
