       N       E                     dE             d eps       ncg     rms          rms(c)
DAV:   1    -0.212478060755E+01   -0.21248E+01   -0.97017E+02    24   0.153E+02
DAV:   2    -0.332578672069E+01   -0.12010E+01   -0.10971E+01    36   0.118E+01
DAV:   3    -0.338991072196E+01   -0.64124E-01   -0.27553E-01    24   0.253E+00
DAV:   4    -0.339074438905E+01   -0.83367E-03   -0.82917E-03    24   0.303E-01
DAV:   5    -0.339076437601E+01   -0.19987E-04   -0.19985E-04    18   0.453E-02    0.558E+00
DAV:   6    -0.454196891874E+01   -0.11512E+01   -0.53657E+00    36   0.111E+01    0.203E+00
DAV:   7    -0.478124358370E+01   -0.23927E+00   -0.25089E-01    24   0.421E+00    0.150E+00
DAV:   8    -0.481344385812E+01   -0.32200E-01   -0.51731E-02    48   0.207E+00    0.764E-01
DAV:   9    -0.485711744798E+01   -0.43674E-01   -0.87936E-02    30   0.228E+00    0.387E-01
DAV:  10    -0.486518783658E+01   -0.80704E-02   -0.62659E-03    24   0.731E-01    0.866E-02
DAV:  11    -0.486545614316E+01   -0.26831E-03   -0.25159E-04    36   0.136E-01    0.299E-02
DAV:  12    -0.486548219847E+01   -0.26055E-04   -0.47526E-05    12   0.515E-02
   1 F= -.48654822E+01 E0= -.48090628E+01  d E =-.486548E+01  mag=     0.9998
