 vasp.6.2.1 16May21 (build Dec 20 2021 17:15:01) gamma-only                      
 executed on             LinuxGNU date 2026.02.02  13:56:47
 running on    1 total cores
 distrk:  each k-point on    1 cores,    1 groups
 distr:  one band on NCORE=   1 cores,    1 groups


--------------------------------------------------------------------------------------------------------


 INCAR:
   ISMEAR = 0
   ISPIN = 2
   NSW = 5
   IBRION = 2
   ISIF = 3

 POTCAR:    PAW_PBE Be_GW 04Mar2008               
 POTCAR:    PAW_PBE H 15Jun2001                   
 -----------------------------------------------------------------------------
|                                                                             |
|           W    W    AA    RRRRR   N    N  II  N    N   GGGG   !!!           |
|           W    W   A  A   R    R  NN   N  II  NN   N  G    G  !!!           |
|           W    W  A    A  R    R  N N  N  II  N N  N  G       !!!           |
|           W WW W  AAAAAA  RRRRR   N  N N  II  N  N N  G  GGG   !            |
|           WW  WW  A    A  R   R   N   NN  II  N   NN  G    G                |
|           W    W  A    A  R    R  N    N  II  N    N   GGGG   !!!           |
|                                                                             |
|     You use a magnetic or noncollinear calculation, but did not specify     |
|     the initial magnetic moment with the MAGMOM tag. Note that a            |
|     default of 1 will be used for all atoms. This ferromagnetic setup       |
|     may break the symmetry of the crystal, in particular it may rule        |
|     out finding an antiferromagnetic solution. Thence, we recommend         |
|     setting the initial magnetic moment manually or verifying carefully     |
|     that this magnetic setup is desired.                                    |
|                                                                             |
 -----------------------------------------------------------------------------

 POTCAR:    PAW_PBE Be_GW 04Mar2008               
   VRHFIN =Be: s2p0                                                                                 
   LEXCH  = PE                                                                                      
   EATOM  =    27.5229 eV,    2.0229 Ry                                                             
                                                                                                    
   TITEL  = PAW_PBE Be_GW 04Mar2008                                                                 
   LULTRA =        F    use ultrasoft PP ?                                                          
   IUNSCR =        1    unscreen: 0-lin 1-nonlin 2-no                                               
   RPACOR =    1.580    partial core radius                                                         
   POMASS =    9.013; ZVAL   =    2.000    mass and valenz                                          
   RCORE  =    1.900    outmost cutoff radius                                                       
   RWIGS  =    1.900; RWIGS  =    1.005    wigner-seitz radius (au A)                               
   ENMAX  =  247.543; ENMIN  =  185.657 eV                                                          
   RCLOC  =    1.409    cutoff for local pot                                                        
   LCOR   =        T    correct aug charges                                                         
   LPAW   =        T    paw PP                                                                      
   EAUG   =  527.985                                                                                
   DEXC   =    0.000                                                                                
   RMAX   =    1.944    core radius for proj-oper                                                   
   RAUG   =    1.300    factor for augmentation sphere                                              
   RDEP   =    2.003    radius for radial grids                                                     
   RDEPT  =    1.802    core radius for aug-charge                                                  
                                                                                                    
   Atomic configuration                                                                             
    4 entries                                                                                       
     n  l   j            E        occ.                                                              
     1  0  0.50      -106.2290   2.0000                                                             
     2  0  0.50        -5.6115   1.9999                                                             
     2  1  0.50        -2.0196   0.0010                                                             
     3  2  1.50        -1.3606   0.0000                                                             
   Description                                                                                      
     l       E           TYP  RCUT    TYP  RCUT                                                     
     0     -5.6114891     23  1.900                                                                 
     0     68.0291300     23  1.900                                                                 
     1     -2.0196155     23  1.900                                                                 
     1     54.4233040     23  1.900                                                                 
     2     54.4233040     23  1.900                                                                 
  local pseudopotential read in
  partial core-charges read in
  partial kinetic energy density read in
  kinetic energy density of atom read in
  atomic valenz-charges read in
  non local Contribution for L=           0  read in
    real space projection operators read in
  non local Contribution for L=           0  read in
    real space projection operators read in
  non local Contribution for L=           1  read in
    real space projection operators read in
  non local Contribution for L=           1  read in
    real space projection operators read in
  non local Contribution for L=           2  read in
    real space projection operators read in
    PAW grid and wavefunctions read in

   number of l-projection  operators is LMAX  =           5
   number of lm-projection operators is LMMAX =          13

 POTCAR:    PAW_PBE H 15Jun2001                   
   VRHFIN =H: ultrasoft test                                                                        
   LEXCH  = PE                                                                                      
   EATOM  =    12.4884 eV,    0.9179 Ry                                                             
                                                                                                    
   TITEL  = PAW_PBE H 15Jun2001                                                                     
   LULTRA =        F    use ultrasoft PP ?                                                          
   IUNSCR =        0    unscreen: 0-lin 1-nonlin 2-no                                               
   RPACOR =    0.000    partial core radius                                                         
   POMASS =    1.000; ZVAL   =    1.000    mass and valenz                                          
   RCORE  =    1.100    outmost cutoff radius                                                       
   RWIGS  =    0.700; RWIGS  =    0.370    wigner-seitz radius (au A)                               
   ENMAX  =  250.000; ENMIN  =  200.000 eV                                                          
   RCLOC  =    0.701    cutoff for local pot                                                        
   LCOR   =        T    correct aug charges                                                         
   LPAW   =        T    paw PP                                                                      
   EAUG   =  400.000                                                                                
   RMAX   =    1.123    core radius for proj-oper                                                   
   RAUG   =    1.200    factor for augmentation sphere                                              
   RDEP   =    1.112    radius for radial grids                                                     
   RDEPT  =    0.926    core radius for aug-charge                                                  
                                                                                                    
   Atomic configuration                                                                             
    2 entries                                                                                       
     n  l   j            E        occ.                                                              
     1  0  0.50        -6.4927   1.0000                                                             
     2  1  0.50        -3.4015   0.0000                                                             
   Description                                                                                      
     l       E           TYP  RCUT    TYP  RCUT                                                     
     0     -6.4927494     23  1.100                                                                 
     0      6.8029130     23  1.100                                                                 
     1     -4.0817478     23  1.100                                                                 
  local pseudopotential read in
  atomic valenz-charges read in
  non local Contribution for L=           0  read in
    real space projection operators read in
  non local Contribution for L=           0  read in
    real space projection operators read in
  non local Contribution for L=           1  read in
    real space projection operators read in
    PAW grid and wavefunctions read in

   number of l-projection  operators is LMAX  =           3
   number of lm-projection operators is LMMAX =           5

  PAW_PBE Be_GW 04Mar2008               :
 energy of atom  1       EATOM=  -27.5229
 kinetic energy error for atom=    0.0006 (will be added to EATOM!!)
  PAW_PBE H 15Jun2001                   :
 energy of atom  2       EATOM=  -12.4884
 kinetic energy error for atom=    0.0868 (will be added to EATOM!!)


 POSCAR: Be H
  positions in direct lattice
  No initial velocities read in
 exchange correlation table for  LEXCH =        8
   RHO(1)=    0.500       N(1)  =     2000
   RHO(2)=  100.500       N(2)  =     4000



--------------------------------------------------------------------------------------------------------


 ion  position               nearest neighbor table
   1  0.000  0.000  0.000-
   2  0.000  0.500  0.500-

  LATTYP: Found a simple tetragonal cell.
 ALAT       =     2.2673244588
 C/A-ratio  =     0.9997166445
  
  Lattice vectors:
  
 A1 = (   1.6032400000,  -1.6032410000,   0.0000000000)
 A2 = (   1.6032400000,   1.6032400000,   0.0000000000)
 A3 = (   0.0000000000,   0.0000000000,   2.2666820000)


Analysis of symmetry for initial positions (statically):
=====================================================================
 Subroutine PRICEL returns:
 Original cell was already a primitive cell.
 

 Routine SETGRP: Setting up the symmetry group for a 
 simple tetragonal supercell.


 Subroutine GETGRP returns: Found 16 space group operations
 (whereof 16 operations were pure point group operations)
 out of a pool of 16 trial point group operations.


The static configuration has the point symmetry D_4h.


Analysis of symmetry for dynamics (positions and initial velocities):
=====================================================================
 Subroutine PRICEL returns:
 Original cell was already a primitive cell.
 

 Routine SETGRP: Setting up the symmetry group for a 
 simple tetragonal supercell.


 Subroutine GETGRP returns: Found 16 space group operations
 (whereof 16 operations were pure point group operations)
 out of a pool of 16 trial point group operations.


The dynamic configuration has the point symmetry D_4h.


Analysis of structural, dynamic, and magnetic symmetry:
=====================================================================
 Subroutine PRICEL returns:
 Original cell was already a primitive cell.
 

 Routine SETGRP: Setting up the symmetry group for a 
 simple tetragonal supercell.


 Subroutine GETGRP returns: Found 16 space group operations
 (whereof 16 operations were pure point group operations)
 out of a pool of 16 trial point group operations.


The overall configuration has the point symmetry D_4h.


 Subroutine INISYM returns: Found 16 space group operations
 (whereof 16 operations are pure point group operations),
 and found     1 'primitive' translations


----------------------------------------------------------------------------------------

                                     Primitive cell                                     

  volume of cell :      11.6525

  direct lattice vectors                    reciprocal lattice vectors
     1.603240000  1.603240000  0.000000000     0.623736933  0.000000000 -0.000000000
    -0.000000000  3.206481000  0.000000000    -0.311868369  0.311868369  0.000000000
     0.000000000  0.000000000  2.266682000     0.000000000 -0.000000000  0.441173486

  length of vectors
     2.267323752  3.206481000  2.266682000     0.623736933  0.441048477  0.441173486

  position of ions in fractional coordinates (direct lattice)
     0.000000000  0.000000000  0.000000000
     0.000000005  0.499999900  0.499999579

  ion indices of the primitive-cell ions
   primitive index   ion index
                 1           1
                 2           2

----------------------------------------------------------------------------------------



 KPOINTS: Gamma-point only                        

Automatic generation of k-mesh.
 Grid dimensions read from file:
 generate k-points for:    1    1    1

 Generating k-lattice:

  Cartesian coordinates                     Fractional coordinates (reciprocal lattice)
     0.623736933  0.000000000 -0.000000000     1.000000000  0.000000000  0.000000000
    -0.311868369  0.311868369  0.000000000    -0.000000000  1.000000000  0.000000000
     0.000000000 -0.000000000  0.441173486     0.000000000  0.000000000  1.000000000

  Length of vectors
     0.623736933  0.441048477  0.441173486

  Shift w.r.t. Gamma in fractional coordinates (k-lattice)
     0.000000000  0.000000000  0.000000000

 
 Subroutine IBZKPT returns following result:
 ===========================================
 
 Found      1 irreducible k-points:
 
 Following reciprocal coordinates:
            Coordinates               Weight
  0.000000  0.000000  0.000000      1.000000
 
 Following cartesian coordinates:
            Coordinates               Weight
  0.000000  0.000000  0.000000      1.000000
 


--------------------------------------------------------------------------------------------------------




 Dimension of arrays:
   k-points           NKPTS =      1   k-points in BZ     NKDIM =      1   number of bands    NBANDS=      6
   number of dos      NEDOS =    301   number of ions     NIONS =      2
   non local maximal  LDIM  =      5   non local SUM 2l+1 LMDIM =     13
   total plane-waves  NPLWV =   1200
   max r-space proj   IRMAX =      1   max aug-charges    IRDMAX=   3696
   dimension x,y,z NGX =    10 NGY =   12 NGZ =   10
   dimension x,y,z NGXF=    20 NGYF=   24 NGZF=   20
   support grid    NGXF=    20 NGYF=   24 NGZF=   20
   ions per type =               1   1
   NGX,Y,Z   is equivalent  to a cutoff of   7.33,  6.22,  7.33 a.u.
   NGXF,Y,Z  is equivalent  to a cutoff of  14.66, 12.44, 14.67 a.u.

 SYSTEM =  unknown system                          
 POSCAR =  Be H                                    

 Startparameter for this run:
   NWRITE =      2    write-flag & timer
   PREC   = normal    normal or accurate (medium, high low for compatibility)
   ISTART =      1    job   : 0-new  1-cont  2-samecut
   ICHARG =      0    charge: 1-file 2-atom 10-const
   ISPIN  =      2    spin polarized calculation?
   LNONCOLLINEAR =      F non collinear calculations
   LSORBIT =      F    spin-orbit coupling
   INIWAV =      1    electr: 0-lowe 1-rand  2-diag
   LASPH  =      F    aspherical Exc in radial PAW
 Electronic Relaxation 1
   ENCUT  =  250.0 eV  18.37 Ry    4.29 a.u.   2.92  4.13  2.92*2*pi/ulx,y,z
   ENINI  =  250.0     initial cutoff
   ENAUG  =  528.0 eV  augmentation charge cutoff
   NELM   =     60;   NELMIN=  2; NELMDL=  0     # of ELM steps 
   EDIFF  = 0.1E-03   stopping-criterion for ELM
   LREAL  =      F    real-space projection
   NLSPLINE    = F    spline interpolate recip. space projectors
   LCOMPAT=      F    compatible to vasp.4.4
   GGA_COMPAT  = T    GGA compatible to vasp.4.4-vasp.4.6
   LMAXPAW     = -100 max onsite density
   LMAXMIX     =    2 max onsite mixed and CHGCAR
   VOSKOWN=      0    Vosko Wilk Nusair interpolation
   ROPT   =    0.00000   0.00000
 Ionic relaxation
   EDIFFG = 0.1E-02   stopping-criterion for IOM
   NSW    =      5    number of steps for IOM
   NBLOCK =      1;   KBLOCK =      5    inner block; outer block 
   IBRION =      2    ionic relax: 0-MD 1-quasi-New 2-CG
   NFREE  =      1    steps in history (QN), initial steepest desc. (CG)
   ISIF   =      3    stress and relaxation
   IWAVPR =     11    prediction:  0-non 1-charg 2-wave 3-comb
   ISYM   =      2    0-nonsym 1-usesym 2-fastsym
   LCORR  =      T    Harris-Foulkes like correction to forces

   POTIM  = 0.5000    time-step for ionic-motion
   TEIN   =    0.0    initial temperature
   TEBEG  =    0.0;   TEEND  =   0.0 temperature during run
   SMASS  =  -3.00    Nose mass-parameter (am)
   estimated Nose-frequenzy (Omega)   =  0.10E-29 period in steps = 0.13E+47 mass=  -0.117E-27a.u.
   SCALEE = 1.0000    scale energy and forces
   NPACO  =    256;   APACO  = 16.0  distance and # of slots for P.C.
   PSTRESS=    0.0 pullay stress

  Mass of Ions in am
   POMASS =   9.01  1.00
  Ionic Valenz
   ZVAL   =   2.00  1.00
  Atomic Wigner-Seitz radii
   RWIGS  =  -1.00 -1.00
  virtual crystal weights 
   VCA    =   1.00  1.00
   NELECT =       3.0000    total number of electrons
   NUPDOWN=      -1.0000    fix difference up-down

 DOS related values:
   EMIN   =  10.00;   EMAX   =-10.00  energy-range for DOS
   EFERMI =   0.00
   ISMEAR =     0;   SIGMA  =   0.20  broadening in eV -4-tet -1-fermi 0-gaus

 Electronic relaxation 2 (details)
   IALGO  =     38    algorithm
   LDIAG  =      T    sub-space diagonalisation (order eigenvalues)
   LSUBROT=      F    optimize rotation matrix (better conditioning)
   TURBO    =      0    0=normal 1=particle mesh
   IRESTART =      0    0=no restart 2=restart with 2 vectors
   NREBOOT  =      0    no. of reboots
   NMIN     =      0    reboot dimension
   EREF     =   0.00    reference energy to select bands
   IMIX   =      4    mixing-type and parameters
     AMIX     =   0.40;   BMIX     =  1.00
     AMIX_MAG =   1.60;   BMIX_MAG =  1.00
     AMIN     =   0.10
     WC   =   100.;   INIMIX=   1;  MIXPRE=   1;  MAXMIX= -45

 Intra band minimization:
   WEIMIN = 0.0010     energy-eigenvalue tresh-hold
   EBREAK =  0.42E-05  absolut break condition
   DEPER  =   0.30     relativ break condition  

   TIME   =   0.40     timestep for ELM

  volume/ion in A,a.u.               =       5.83        39.32
  Fermi-wavevector in a.u.,A,eV,Ry     =   1.041460  1.968074 14.757412  1.084639
  Thomas-Fermi vector in A             =   2.176082

 Write flags
   LWAVE        =      T    write WAVECAR
   LDOWNSAMPLE  =      F    k-point downsampling of WAVECAR
   LCHARG       =      T    write CHGCAR
   LVTOT        =      F    write LOCPOT, total local potential
   LVHAR        =      F    write LOCPOT, Hartree potential only
   LELF         =      F    write electronic localiz. function (ELF)
   LORBIT       =      0    0 simple, 1 ext, 2 COOP (PROOUT), +10 PAW based schemes


 Dipole corrections
   LMONO  =      F    monopole corrections only (constant potential shift)
   LDIPOL =      F    correct potential (dipole corrections)
   IDIPOL =      0    1-x, 2-y, 3-z, 4-all directions 
   EPSILON=  1.0000000 bulk dielectric constant

 Exchange correlation treatment:
   GGA     =    --    GGA type
   LEXCH   =     8    internal setting for exchange type
   VOSKOWN=      0    Vosko Wilk Nusair interpolation
   LHFCALC =     F    Hartree Fock is set to
   LHFONE  =     F    Hartree Fock one center treatment
   AEXX    =    0.0000 exact exchange contribution

 Linear response parameters
   LEPSILON=     F    determine dielectric tensor
   LRPA    =     F    only Hartree local field effects (RPA)
   LNABLA  =     F    use nabla operator in PAW spheres
   LVEL    =     F    velocity operator in full k-point grid
   LINTERFAST=   F  fast interpolation
   KINTER  =     0    interpolate to denser k-point grid
   CSHIFT  =0.1000    complex shift for real part using Kramers Kronig
   OMEGAMAX=  -1.0    maximum frequency
   DEG_THRESHOLD= 0.2000000E-02 threshold for treating states as degnerate
   RTIME   =   -0.100 relaxation time in fs
  (WPLASMAI=    0.000 imaginary part of plasma frequency in eV, 0.658/RTIME)
   DFIELD  = 0.0000000 0.0000000 0.0000000 field for delta impulse in time

 Orbital magnetization related:
   ORBITALMAG=     F  switch on orbital magnetization
   LCHIMAG   =     F  perturbation theory with respect to B field
   DQ        =  0.001000  dq finite difference perturbation B field
   LLRAUG    =     F  two centre corrections for induced B field



--------------------------------------------------------------------------------------------------------


 conjugate gradient relaxation of ions
 charge density and potential will be updated during run
 spin polarized calculation
 Variant of blocked Davidson
 Davidson routine will perform the subspace rotation
 perform sub-space diagonalisation
    after iterative eigenvector-optimisation
 modified Broyden-mixing scheme, WC =      100.0
 initial mixing is a Kerker type mixing with AMIX =  0.4000 and BMIX =      1.0000
 Hartree-type preconditioning will be used
 using additional bands            4
 reciprocal scheme for non local part
 use partial core corrections
 calculate Harris-corrections to forces   (improved forces if not selfconsistent)
 use gradient corrections 
 use of overlap-Matrix (Vanderbilt PP)
 Gauss-broadening in eV      SIGMA  =   0.20


--------------------------------------------------------------------------------------------------------


  energy-cutoff  :      250.00
  volume of cell :       11.65
      direct lattice vectors                 reciprocal lattice vectors
     1.603240000  1.603240000  0.000000000     0.623736933  0.000000000 -0.000000000
    -0.000000000  3.206481000  0.000000000    -0.311868369  0.311868369  0.000000000
     0.000000000  0.000000000  2.266682000     0.000000000 -0.000000000  0.441173486

  length of vectors
     2.267323752  3.206481000  2.266682000     0.623736933  0.441048477  0.441173486



 old parameters found on file WAVECAR:
  energy-cutoff  :      250.00
  volume of cell :       11.65
      direct lattice vectors                 reciprocal lattice vectors
     1.603240000  1.603240000  0.000000000     0.623736933  0.000000000 -0.000000000
    -0.000000000  3.206481000  0.000000000    -0.311868369  0.311868369  0.000000000
     0.000000000  0.000000000  2.266682000     0.000000000 -0.000000000  0.441173486

  length of vectors


 k-points in units of 2pi/SCALE and weight: Gamma-point only                        
   0.00000000  0.00000000  0.00000000       1.000

 k-points in reciprocal lattice and weights: Gamma-point only                        
   0.00000000  0.00000000  0.00000000       1.000

 position of ions in fractional coordinates (direct lattice) 
   0.00000000  0.00000000  0.00000000
   0.00000000  0.49999990  0.49999958

 position of ions in cartesian coordinates  (Angst):
   0.00000000  0.00000000  0.00000000
   0.00000001  1.60324019  1.13334005



--------------------------------------------------------------------------------------------------------


 use serial FFT for orbitals x direction half grid
 k-point   1 :   0.0000 0.0000 0.0000  plane waves:      47

 maximum and minimum number of plane-waves per node :        47       47

 maximum number of plane-waves:        47
 maximum index in each direction: 
   IXMAX=    2   IYMAX=    4   IZMAX=    2
   IXMIN=    0   IYMIN=   -1   IZMIN=   -2


 serial   3D FFT for wavefunctions
 parallel 3D FFT for charge:
    minimum data exchange during FFTs selected (reduces bandwidth)


 total amount of memory used by VASP MPI-rank0    31322. kBytes
=======================================================================

   base      :      30000. kBytes
   nonl-proj :         11. kBytes
   fftplans  :        356. kBytes
   grid      :        929. kBytes
   one-center:         16. kBytes
   wavefun   :         10. kBytes

     INWAV:  cpu time    0.0001: real time    0.0001
 Broyden mixing: mesh for mixing (old mesh)
   NGX =  5   NGY =  9   NGZ =  5
  (NGX  = 20   NGY  = 24   NGZ  = 20)
  gives a total of    225 points

 charge density for first step will be calculated from the start-wavefunctions


--------------------------------------------------------------------------------------------------------


 Maximum index for augmentation-charges         3395 (set IRDMAX)


--------------------------------------------------------------------------------------------------------


 initial charge from wavefunction
 First call to EWALD:  gamma=   0.782
 Maximum number of real-space cells 4x 3x 3
 Maximum number of reciprocal cells 3x 4x 3

    FEWALD:  cpu time    0.0008: real time    0.0008


--------------------------------------- Iteration      1(   1)  ---------------------------------------


    POTLOK:  cpu time    0.0193: real time    0.3744
    SETDIJ:  cpu time    0.0171: real time    0.0171
     EDDAV:  cpu time    0.0042: real time    0.0042
       DOS:  cpu time    0.0002: real time    0.0002
    CHARGE:  cpu time    0.0027: real time    0.0027
    MIXING:  cpu time    0.0004: real time    0.0004
    --------------------------------------------
      LOOP:  cpu time    0.0438: real time    0.3990

 eigenvalue-minimisations  :    12
 total energy-change (2. order) :-0.4865494E+01  (-0.9818976E-06)
 number of electron       2.9999996 magnetization       1.0000000
 augmentation part       -0.0300254 magnetization       0.0224880

 Broyden mixing:
  rms(total) = 0.15709E-03    rms(broyden)= 0.90037E-04
  rms(prec ) = 0.11650E-03
  weight for this iteration     100.00
  WARNING: grid for Broyden might be to small

 Free energy of the ion-electron system (eV)
  ---------------------------------------------------
  alpha Z        PSCENC =         5.84199100
  Ewald energy   TEWEN  =       -55.24064177
  -Hartree energ DENC   =        -0.44844031
  -exchange      EXHF   =         0.00000000
  -V(xc)+E(xc)   XCENC  =         6.55830394
  PAW double counting   =        69.57401022      -69.06568709
  entropy T*S    EENTRO =        -0.11283860
  eigenvalues    EBANDS =        -1.89610264
  atomic energy  EATOM  =        39.92391144
  Solvation  Ediel_sol  =         0.00000000
  ---------------------------------------------------
  free energy    TOTEN  =        -4.86549381 eV

  energy without entropy =       -4.75265521  energy(sigma->0) =       -4.80907451


--------------------------------------------------------------------------------------------------------




--------------------------------------- Iteration      1(   2)  ---------------------------------------


    POTLOK:  cpu time    0.0182: real time    0.0183
    SETDIJ:  cpu time    0.0172: real time    0.0173
     EDDAV:  cpu time    0.0035: real time    0.0035
       DOS:  cpu time    0.0001: real time    0.0001
    --------------------------------------------
      LOOP:  cpu time    0.0390: real time    0.0393

 eigenvalue-minimisations  :    12
 total energy-change (2. order) :-0.1005590E-06  (-0.7912120E-07)
 number of electron       2.9999996 magnetization       1.0000000
 augmentation part       -0.0300254 magnetization       0.0224880

 Free energy of the ion-electron system (eV)
  ---------------------------------------------------
  alpha Z        PSCENC =         5.84199100
  Ewald energy   TEWEN  =       -55.24064177
  -Hartree energ DENC   =        -0.44843146
  -exchange      EXHF   =         0.00000000
  -V(xc)+E(xc)   XCENC  =         6.55833466
  PAW double counting   =        69.57597323      -69.06766986
  entropy T*S    EENTRO =        -0.11283859
  eigenvalues    EBANDS =        -1.89612256
  atomic energy  EATOM  =        39.92391144
  Solvation  Ediel_sol  =         0.00000000
  ---------------------------------------------------
  free energy    TOTEN  =        -4.86549391 eV

  energy without entropy =       -4.75265532  energy(sigma->0) =       -4.80907461


--------------------------------------------------------------------------------------------------------




 average (electrostatic) potential at core
  the test charge radii are     0.9943  0.5201
  (the norm of the test charge is              1.0000)
       1 -23.6125       2 -34.1484



 E-fermi :  14.8383     XC(G=0): -10.3239     alpha+bet :-12.2772

 Fermi energy:        14.8382921852

 spin component 1

 k-point     1 :       0.0000    0.0000    0.0000
  band No.  band energies     occupation 
      1      -8.7897      1.00000
      2      14.8382      0.50025
      3      14.8384      0.49975
      4      15.5106      0.00000
      5      16.8396      0.00000
      6      21.0231      0.00000
 Fermi energy:        14.8382921852

 spin component 2

 k-point     1 :       0.0000    0.0000    0.0000
  band No.  band energies     occupation 
      1      -7.9447      1.00000
      2      16.6289      0.00000
      3      17.3860      0.00000
      4      17.4186      0.00000
      5      17.4186      0.00000
      6      21.5197      0.00000


--------------------------------------------------------------------------------------------------------


 soft charge-density along one line, spin component           1
         0         1         2         3         4         5         6         7         8         9
 total charge-density along one line

 soft charge-density along one line, spin component           2
         0         1         2         3         4         5         6         7         8         9
 total charge-density along one line

 pseudopotential strength for first ion, spin component:           1
  3.792  -7.371   0.000   0.000  -0.000  -0.000  -0.000   0.000
 -7.371  31.603  -0.000  -0.000   0.000   0.000   0.000  -0.000
  0.000  -0.000  -0.815  -0.000   0.000   3.246  -0.000   0.000
  0.000  -0.000  -0.000  -0.821  -0.000  -0.000   3.361  -0.000
 -0.000   0.000   0.000  -0.000  -0.815   0.000  -0.000   3.246
 -0.000   0.000   3.246  -0.000   0.000 -47.457   0.000  -0.000
 -0.000   0.000  -0.000   3.361  -0.000   0.000 -48.116   0.000
  0.000  -0.000   0.000  -0.000   3.246  -0.000   0.000 -47.457
 -0.000  -0.000   0.000   0.000  -0.000   0.000   0.000  -0.000
  0.000   0.000  -0.000  -0.000   0.000  -0.000  -0.000   0.000
 -0.062   0.049   0.000  -0.000  -0.000   0.000  -0.000  -0.000
  0.000   0.000   0.000   0.000  -0.000   0.000   0.000  -0.000
  0.000   0.000   0.000  -0.000   0.000   0.000  -0.000   0.000
 pseudopotential strength for first ion, spin component:           2
  3.581  -6.878   0.000   0.000  -0.000  -0.000  -0.000   0.000
 -6.878  30.469  -0.000  -0.000   0.000   0.000   0.000  -0.000
  0.000  -0.000  -0.904   0.000  -0.000   3.759   0.000  -0.000
  0.000  -0.000   0.000  -0.924   0.000   0.000   3.730   0.000
 -0.000   0.000  -0.000   0.000  -0.904  -0.000   0.000   3.759
 -0.000   0.000   3.759   0.000  -0.000 -49.401  -0.000   0.000
 -0.000   0.000   0.000   3.730   0.000  -0.000 -49.120  -0.000
  0.000  -0.000  -0.000   0.000   3.759   0.000  -0.000 -49.401
  0.000   0.000   0.000  -0.000  -0.000   0.000  -0.000  -0.000
 -0.000  -0.000  -0.000  -0.000  -0.000  -0.000  -0.000  -0.000
  0.042   0.031   0.000  -0.000  -0.000   0.000  -0.000  -0.000
 -0.000  -0.000  -0.000   0.000  -0.000  -0.000   0.000  -0.000
  0.000   0.000   0.000  -0.000   0.000   0.000  -0.000   0.000
 total augmentation occupancy for first ion, spin component:           1
  1.760   0.090   0.000   0.000   0.000   0.000   0.000   0.000   0.000   0.000   0.003   0.000   0.000
  0.090   0.005   0.000   0.000   0.000   0.000   0.000   0.000   0.000   0.000   0.000   0.000   0.000
  0.000   0.000   1.358   0.000  -0.000  -0.040  -0.000   0.000   0.000   0.000   0.000   0.000   0.000
  0.000   0.000   0.000   0.000  -0.000   0.000  -0.000  -0.000   0.000   0.000   0.000   0.000   0.000
  0.000   0.000  -0.000  -0.000   1.358   0.000   0.000  -0.040   0.000   0.000   0.000   0.000   0.000
  0.000   0.000  -0.040   0.000   0.000   0.001   0.000  -0.000   0.000   0.000   0.000   0.000   0.000
  0.000   0.000  -0.000  -0.000   0.000   0.000   0.000   0.000   0.000   0.000   0.000   0.000   0.000
  0.000   0.000   0.000  -0.000  -0.040  -0.000   0.000   0.001   0.000   0.000   0.000   0.000   0.000
  0.000   0.000   0.000   0.000   0.000   0.000   0.000   0.000   0.000   0.000   0.000   0.000   0.000
  0.000   0.000   0.000   0.000   0.000   0.000   0.000   0.000   0.000   0.000   0.000  -0.000   0.000
  0.003   0.000   0.000   0.000   0.000   0.000   0.000   0.000   0.000   0.000   0.000  -0.000   0.000
  0.000   0.000   0.000   0.000   0.000   0.000   0.000   0.000   0.000  -0.000  -0.000   0.000   0.000
  0.000   0.000   0.000   0.000   0.000   0.000   0.000   0.000   0.000   0.000   0.000   0.000   0.000
 total augmentation occupancy for first ion, spin component:           2
  0.115   0.009   0.000   0.000   0.000   0.000   0.000   0.000  -0.000   0.000  -0.011  -0.000  -0.000
  0.009   0.001   0.000   0.000   0.000   0.000   0.000   0.000  -0.000   0.000  -0.001  -0.000  -0.000
  0.000   0.000   1.358  -0.000  -0.000  -0.040   0.000   0.000   0.000   0.000   0.000   0.000   0.000
  0.000   0.000  -0.000   0.000  -0.000   0.000  -0.000  -0.000   0.000   0.000   0.000   0.000   0.000
  0.000   0.000  -0.000  -0.000   1.358   0.000  -0.000  -0.040   0.000   0.000   0.000   0.000   0.000
  0.000   0.000  -0.040   0.000   0.000   0.001  -0.000  -0.000   0.000   0.000   0.000   0.000   0.000
  0.000   0.000   0.000  -0.000  -0.000   0.000   0.000  -0.000   0.000   0.000   0.000   0.000   0.000
  0.000   0.000   0.000  -0.000  -0.040  -0.000  -0.000   0.001   0.000   0.000   0.000   0.000   0.000
 -0.000  -0.000   0.000   0.000   0.000   0.000   0.000   0.000  -0.000  -0.000  -0.000   0.000  -0.000
  0.000   0.000   0.000   0.000   0.000   0.000   0.000   0.000  -0.000  -0.000   0.000   0.000   0.000
 -0.011  -0.001   0.000   0.000   0.000   0.000   0.000   0.000  -0.000   0.000  -0.000   0.000  -0.000
 -0.000  -0.000   0.000   0.000   0.000   0.000   0.000   0.000   0.000   0.000   0.000  -0.000  -0.000
 -0.000  -0.000   0.000   0.000   0.000   0.000   0.000   0.000  -0.000   0.000  -0.000  -0.000  -0.000


------------------------ aborting loop because EDIFF is reached ----------------------------------------


    CHARGE:  cpu time    0.0025: real time    0.0025
    FORLOC:  cpu time    0.0006: real time    0.0006
    FORNL :  cpu time    0.0075: real time    0.0076
    STRESS:  cpu time    0.0251: real time    0.0252
    FORCOR:  cpu time    0.0178: real time    0.0179
    FORHAR:  cpu time    0.0019: real time    0.0019
    MIXING:  cpu time    0.0004: real time    0.0004
    OFIELD:  cpu time    0.0000: real time    0.0000

  FORCE on cell =-STRESS in cart. coord.  units (eV):
  Direction    XX          YY          ZZ          XY          YZ          ZX
  --------------------------------------------------------------------------------------
  Alpha Z     5.84199     5.84199     5.84199
  Ewald     -18.41465   -18.41465   -18.41134     0.00000     0.00000    -0.00000
  Hartree     0.12216     0.12216     0.20411    -0.00000    -0.00000     0.00000
  E(xc)      -8.18274    -8.18266    -8.01371     0.00001    -0.00000    -0.00000
  Local      -1.10555    -1.10561     0.91233     0.00000     0.00002     0.00000
  n-local    -0.66380    -0.66163     1.12107     0.00038    -0.00025    -0.00000
  augment    -0.16551    -0.16551    -0.15921     0.00004     0.00000     0.00000
  Kinetic    32.10186    32.09953     4.36029    -0.00595     0.00026     0.00000
  Fock        0.00000     0.00000     0.00000     0.00000     0.00000     0.00000
  -------------------------------------------------------------------------------------
  Total       9.53368     9.53369   -14.14447    -0.00000    -0.00000     0.00000
  in kB    1310.85164  1310.85246 -1944.81976    -0.00041    -0.00000     0.00000
  external pressure =      225.63 kB  Pullay stress =        0.00 kB


 VOLUME and BASIS-vectors are now :
 -----------------------------------------------------------------------------
  energy-cutoff  :      250.00
  volume of cell :       11.65
      direct lattice vectors                 reciprocal lattice vectors
     1.603240000  1.603240000  0.000000000     0.623736933  0.000000000 -0.000000000
    -0.000000000  3.206481000  0.000000000    -0.311868369  0.311868369  0.000000000
     0.000000000  0.000000000  2.266682000     0.000000000 -0.000000000  0.441173486

  length of vectors
     2.267323752  3.206481000  2.266682000     0.623736933  0.441048477  0.441173486


 FORCES acting on ions
    electron-ion (+dipol)            ewald-force                    non-local-force                 convergence-correction
 -----------------------------------------------------------------------------------------------
   -.763E-09 0.295E-07 0.900E-07   0.830E-07 -.323E-05 -.988E-05   -.775E-22 -.215E-22 -.223E-24   0.206E-14 -.692E-13 -.271E-12
   -.157E-06 0.610E-05 0.207E-04   -.830E-07 0.323E-05 0.988E-05   -.185E-22 -.428E-22 -.990E-23   -.178E-11 0.571E-10 0.169E-09
 -----------------------------------------------------------------------------------------------
   -.157E-06 0.613E-05 0.208E-04   -.114E-15 0.374E-16 -.439E-16   -.960E-22 -.643E-22 -.101E-22   -.178E-11 0.571E-10 0.169E-09


 POSITION                                       TOTAL-FORCE (eV/Angst)
 -----------------------------------------------------------------------------------
      0.00000      0.00000      0.00000        -0.000000      0.000000      0.000000
      0.00000      1.60324      1.13334         0.000000     -0.000000     -0.000000
 -----------------------------------------------------------------------------------
    total drift:                               -0.000000      0.000006      0.000021


--------------------------------------------------------------------------------------------------------



  FREE ENERGIE OF THE ION-ELECTRON SYSTEM (eV)
  ---------------------------------------------------
  free  energy   TOTEN  =        -4.86549391 eV

  energy  without entropy=       -4.75265532  energy(sigma->0) =       -4.80907461



--------------------------------------------------------------------------------------------------------


    POTLOK:  cpu time    0.0340: real time    0.0341


--------------------------------------------------------------------------------------------------------




--------------------------------------------------------------------------------------------------------


    WAVPRE:  cpu time    0.0259: real time    4.4945
    FEWALD:  cpu time    0.0001: real time    0.0001
    GENKIN:  cpu time    0.0000: real time    0.0000
    ORTHCH:  cpu time    0.0001: real time    0.0001
     LOOP+:  cpu time    0.2132: real time    5.3025
V

  energy without entropy =       -4.75265521  energy(sigma->0) =       -4.80907451


--------------------------------------------------------------------------------------------------------




--------------------------------------- Iteration      1(   2)  ---------------------------------------


    POTLOK:  cpu time    0.0190: real time    0.0193
    SETDIJ:  cpu time    0.0172: real time    0.0174
     EDDAV:  cpu time    0.0036: real time    0.0036
       DOS:  cpu time    0.0001: real time    0.0002
    --------------------------------------------
      LOOP:  cpu time    0.0399: real time    0.0405

 eigenvalue-minimisations  :    12
 total energy-change (2. order) :-0.1005590E-06  (-0.7912120E-07)
 number of electron       2.9999996 magnetization       1.0000000
 augmentation part       -0.0300254 magnetization       0.0224880

 Free energy of the ion-electron system (eV)
  ---------------------------------------------------
  alpha Z        PSCENC =         5.84199100
  Ewald energy   TEWEN  =       -55.24064177
  -Hartree energ DENC   =        -0.44843146
  -exchange      EXHF   =         0.00000000
  -V(xc)+E(xc)   XCENC  =         6.55833466
  PAW double counting   =        69.57597323      -69.06766986
  entropy T*S    EENTRO =        -0.11283859
  eigenvalues    EBANDS =        -1.89612256
  atomic energy  EATOM  =        39.92391144
  Solvation  Ediel_sol  =         0.00000000
  ---------------------------------------------------
  free energy    TOTEN  =        -4.86549391 eV

  energy without entropy =       -4.75265532  energy(sigma->0) =       -4.80907461


--------------------------------------------------------------------------------------------------------




 average (electrostatic) potential at core
  the test charge radii are     0.9943  0.5201
  (the norm of the test charge is              1.0000)
       1 -23.6125       2 -34.1484



 E-fermi :  14.8383     XC(G=0): -10.3239     alpha+bet :-12.2772

 Fermi energy:        14.8382921852

 spin component 1

 k-point     1 :       0.0000    0.0000    0.0000
  band No.  band energies     occupation 
      1      -8.7897      1.00000
      2      14.8382      0.50025
      3      14.8384      0.49975
      4      15.5106      0.00000
      5      16.8396      0.00000
      6      21.0231      0.00000
 Fermi energy:        14.8382921852

 spin component 2

 k-point     1 :       0.0000    0.0000    0.0000
  band No.  band energies     occupation 
      1      -7.9447      1.00000
      2      16.6289      0.00000
      3      17.3860      0.00000
      4      17.4186      0.00000
      5      17.4186      0.00000
      6      21.5197      0.00000


--------------------------------------------------------------------------------------------------------


 soft charge-density along one line, spin component           1
         0         1         2         3         4         5         6         7         8         9
 total charge-density along one line

 soft charge-density along one line, spin component           2
         0         1         2         3         4         5         6         7         8         9
 total charge-density along one line

 pseudopotential strength for first ion, spin component:           1
  3.792  -7.371   0.000   0.000  -0.000  -0.000  -0.000   0.000
 -7.371  31.603  -0.000  -0.000   0.000   0.000   0.000  -0.000
  0.000  -0.000  -0.815  -0.000   0.000   3.246  -0.000   0.000
  0.000  -0.000  -0.000  -0.821  -0.000  -0.000   3.361  -0.000
 -0.000   0.000   0.000  -0.000  -0.815   0.000  -0.000   3.246
 -0.000   0.000   3.246  -0.000   0.000 -47.457   0.000  -0.000
 -0.000   0.000  -0.000   3.361  -0.000   0.000 -48.116   0.000
  0.000  -0.000   0.000  -0.000   3.246  -0.000   0.000 -47.457
 -0.000  -0.000   0.000   0.000  -0.000   0.000   0.000  -0.000
  0.000   0.000  -0.000  -0.000   0.000  -0.000  -0.000   0.000
 -0.062   0.049   0.000  -0.000  -0.000   0.000  -0.000  -0.000
  0.000   0.000   0.000   0.000  -0.000   0.000   0.000  -0.000
  0.000   0.000   0.000  -0.000   0.000   0.000  -0.000   0.000
 pseudopotential strength for first ion, spin component:           2
  3.581  -6.878   0.000   0.000  -0.000  -0.000  -0.000   0.000
 -6.878  30.469  -0.000  -0.000   0.000   0.000   0.000  -0.000
  0.000  -0.000  -0.904   0.000  -0.000   3.759   0.000  -0.000
  0.000  -0.000   0.000  -0.924   0.000   0.000   3.730   0.000
 -0.000   0.000  -0.000   0.000  -0.904  -0.000   0.000   3.759
 -0.000   0.000   3.759   0.000  -0.000 -49.401  -0.000   0.000
 -0.000   0.000   0.000   3.730   0.000  -0.000 -49.120  -0.000
  0.000  -0.000  -0.000   0.000   3.759   0.000  -0.000 -49.401
  0.000   0.000   0.000  -0.000  -0.000   0.000  -0.000  -0.000
 -0.000  -0.000  -0.000  -0.000  -0.000  -0.000  -0.000  -0.000
  0.042   0.031   0.000  -0.000  -0.000   0.000  -0.000  -0.000
 -0.000  -0.000  -0.000   0.000  -0.000  -0.000   0.000  -0.000
  0.000   0.000   0.000  -0.000   0.000   0.000  -0.000   0.000
 total augmentation occupancy for first ion, spin component:           1
  1.760   0.090   0.000   0.000   0.000   0.000   0.000   0.000   0.000   0.000   0.003   0.000   0.000
  0.090   0.005   0.000   0.000   0.000   0.000   0.000   0.000   0.000   0.000   0.000   0.000   0.000
  0.000   0.000   1.358   0.000  -0.000  -0.040  -0.000   0.000   0.000   0.000   0.000   0.000   0.000
  0.000   0.000   0.000   0.000  -0.000   0.000  -0.000  -0.000   0.000   0.000   0.000   0.000   0.000
  0.000   0.000  -0.000  -0.000   1.358   0.000   0.000  -0.040   0.000   0.000   0.000   0.000   0.000
  0.000   0.000  -0.040   0.000   0.000   0.001   0.000  -0.000   0.000   0.000   0.000   0.000   0.000
  0.000   0.000  -0.000  -0.000   0.000   0.000   0.000   0.000   0.000   0.000   0.000   0.000   0.000
  0.000   0.000   0.000  -0.000  -0.040  -0.000   0.000   0.001   0.000   0.000   0.000   0.000   0.000
  0.000   0.000   0.000   0.000   0.000   0.000   0.000   0.000   0.000   0.000   0.000   0.000   0.000
  0.000   0.000   0.000   0.000   0.000   0.000   0.000   0.000   0.000   0.000   0.000  -0.000   0.000
  0.003   0.000   0.000   0.000   0.000   0.000   0.000   0.000   0.000   0.000   0.000  -0.000   0.000
  0.000   0.000   0.000   0.000   0.000   0.000   0.000   0.000   0.000  -0.000  -0.000   0.000   0.000
  0.000   0.000   0.000   0.000   0.000   0.000   0.000   0.000   0.000   0.000   0.000   0.000   0.000
 total augmentation occupancy for first ion, spin component:           2
  0.115   0.009   0.000   0.000   0.000   0.000   0.000   0.000  -0.000   0.000  -0.011  -0.000  -0.000
  0.009   0.001   0.000   0.000   0.000   0.000   0.000   0.000  -0.000   0.000  -0.001  -0.000  -0.000
  0.000   0.000   1.358  -0.000  -0.000  -0.040   0.000   0.000   0.000   0.000   0.000   0.000   0.000
  0.000   0.000  -0.000   0.000  -0.000   0.000  -0.000  -0.000   0.000   0.000   0.000   0.000   0.000
  0.000   0.000  -0.000  -0.000   1.358   0.000  -0.000  -0.040   0.000   0.000   0.000   0.000   0.000
  0.000   0.000  -0.040   0.000   0.000   0.001  -0.000  -0.000   0.000   0.000   0.000   0.000   0.000
  0.000   0.000   0.000  -0.000  -0.000   0.000   0.000  -0.000   0.000   0.000   0.000   0.000   0.000
  0.000   0.000   0.000  -0.000  -0.040  -0.000  -0.000   0.001   0.000   0.000   0.000   0.000   0.000
 -0.000  -0.000   0.000   0.000   0.000   0.000   0.000   0.000  -0.000  -0.000  -0.000   0.000  -0.000
  0.000   0.000   0.000   0.000   0.000   0.000   0.000   0.000  -0.000  -0.000   0.000   0.000   0.000
 -0.011  -0.001   0.000   0.000   0.000   0.000   0.000   0.000  -0.000   0.000  -0.000   0.000  -0.000
 -0.000  -0.000   0.000   0.000   0.000   0.000   0.000   0.000   0.000   0.000   0.000  -0.000  -0.000
 -0.000  -0.000   0.000   0.000   0.000   0.000   0.000   0.000  -0.000   0.000  -0.000  -0.000  -0.000


------------------------ aborting loop because EDIFF is reached ----------------------------------------


    CHARGE:  cpu time    0.0024: real time    0.0024
    FORLOC:  cpu time    0.0006: real time    0.0006
    FORNL :  cpu time    0.0071: real time    0.0071
    STRESS:  cpu time    0.0231: real time    0.0232
    FORCOR:  cpu time    0.0182: real time    0.0183
    FORHAR:  cpu time    0.0021: real time    0.0021
    MIXING:  cpu time    0.0004: real time    0.0004
    OFIELD:  cpu time    0.0000: real time    0.0000

  FORCE on cell =-STRESS in cart. coord.  units (eV):
  Direction    XX          YY          ZZ          XY          YZ          ZX
  --------------------------------------------------------------------------------------
  Alpha Z     5.84199     5.84199     5.84199
  Ewald     -18.41465   -18.41465   -18.41134     0.00000     0.00000    -0.00000
  Hartree     0.12216     0.12216     0.20411    -0.00000    -0.00000     0.00000
  E(xc)      -8.18274    -8.18266    -8.01371     0.00001    -0.00000    -0.00000
  Local      -1.10555    -1.10561     0.91233     0.00000     0.00002     0.00000
  n-local    -0.66380    -0.66163     1.12107     0.00038    -0.00025    -0.00000
  augment    -0.16551    -0.16551    -0.15921     0.00004     0.00000     0.00000
  Kinetic    32.10186    32.09953     4.36029    -0.00595     0.00026     0.00000
  Fock        0.00000     0.00000     0.00000     0.00000     0.00000     0.00000
  -------------------------------------------------------------------------------------
  Total       9.53368     9.53369   -14.14447    -0.00000    -0.00000     0.00000
  in kB    1310.85164  1310.85246 -1944.81976    -0.00041    -0.00000     0.00000
  external pressure =      225.63 kB  Pullay stress =        0.00 kB


 VOLUME and BASIS-vectors are now :
 -----------------------------------------------------------------------------
  energy-cutoff  :      250.00
  volume of cell :       11.65
      direct lattice vectors                 reciprocal lattice vectors
     1.603240000  1.603240000  0.000000000     0.623736933  0.000000000 -0.000000000
    -0.000000000  3.206481000  0.000000000    -0.311868369  0.311868369  0.000000000
     0.000000000  0.000000000  2.266682000     0.000000000 -0.000000000  0.441173486

  length of vectors
     2.267323752  3.206481000  2.266682000     0.623736933  0.441048477  0.441173486


 FORCES acting on ions
    electron-ion (+dipol)            ewald-force                    non-local-force                 convergence-correction
 -----------------------------------------------------------------------------------------------
   -.763E-09 0.295E-07 0.900E-07   0.830E-07 -.323E-05 -.988E-05   -.775E-22 -.215E-22 -.223E-24   0.206E-14 -.692E-13 -.271E-12
   -.157E-06 0.610E-05 0.207E-04   -.830E-07 0.323E-05 0.988E-05   -.185E-22 -.428E-22 -.990E-23   -.178E-11 0.571E-10 0.169E-09
 -----------------------------------------------------------------------------------------------
   -.157E-06 0.613E-05 0.208E-04   -.114E-15 0.374E-16 -.439E-16   -.960E-22 -.643E-22 -.101E-22   -.178E-11 0.571E-10 0.169E-09


 POSITION                                       TOTAL-FORCE (eV/Angst)
 -----------------------------------------------------------------------------------
      0.00000      0.00000      0.00000        -0.000000      0.000000      0.000000
      0.00000      1.60324      1.13334         0.000000     -0.000000     -0.000000
 -----------------------------------------------------------------------------------
    total drift:                               -0.000000      0.000006      0.000021


--------------------------------------------------------------------------------------------------------



  FREE ENERGIE OF THE ION-ELECTRON SYSTEM (eV)
  ---------------------------------------------------
  free  energy   TOTEN  =        -4.86549391 eV

  energy  without entropy=       -4.75265532  energy(sigma->0) =       -4.80907461



--------------------------------------------------------------------------------------------------------


    POTLOK:  cpu time    0.0344: real time    0.0346


--------------------------------------------------------------------------------------------------------




--------------------------------------------------------------------------------------------------------


    WAVPRE:  cpu time    0.0261: real time    3.8800
    FEWALD:  cpu time    0.0001: real time    0.0001
    GENKIN:  cpu time    0.0000: real time    0.0000
    ORTHCH:  cpu time    0.0001: real time    0.0001
     LOOP+:  cpu time    0.2164: real time    4.5729
9  energy(sigma->0) =      -10.45433213


--------------------------------------------------------------------------------------------------------




--------------------------------------- Iteration      2(   2)  ---------------------------------------


    POTLOK:  cpu time    0.0179: real time    0.0180
    SETDIJ:  cpu time    0.0166: real time    0.0166
     EDDAV:  cpu time    0.0071: real time    0.0071
       DOS:  cpu time    0.0001: real time    0.0001
    CHARGE:  cpu time    0.0024: real time    0.0024
    MIXING:  cpu time    0.0004: real time    0.0004
    --------------------------------------------
      LOOP:  cpu time    0.0445: real time    0.0446

 eigenvalue-minimisations  :    30
 total energy-change (2. order) :-0.5323938E-01  (-0.9153912E-01)
 number of electron       2.9999993 magnetization       1.0000002
 augmentation part       -0.0294652 magnetization       0.0246283

 Broyden mixing:
  rms(total) = 0.11585E+00    rms(broyden)= 0.11540E+00
  rms(prec ) = 0.28593E+00
  weight for this iteration     100.00

 eigenvalues of (default mixing * dielectric matrix)
  average eigenvalue GAMMA=   0.8493
  0.8493

 Free energy of the ion-electron system (eV)
  ---------------------------------------------------
  alpha Z        PSCENC =         5.86152540
  Ewald energy   TEWEN  =       -52.06145433
  -Hartree energ DENC   =        -0.44752201
  -exchange      EXHF   =         0.00000000
  -V(xc)+E(xc)   XCENC  =         6.58396067
  PAW double counting   =        73.76207071      -73.22986632
  entropy T*S    EENTRO =        -0.11274003
  eigenvalues    EBANDS =       -10.84387600
  atomic energy  EATOM  =        39.92391144
  Solvation  Ediel_sol  =         0.00000000
  ---------------------------------------------------
  free energy    TOTEN  =       -10.56399045 eV

  energy without entropy =      -10.45125043  energy(sigma->0) =      -10.50762044


--------------------------------------------------------------------------------------------------------




--------------------------------------- Iteration      2(   3)  ---------------------------------------


    POTLOK:  cpu time    0.0188: real time    0.0188
    SETDIJ:  cpu time    0.0173: real time    0.0173
     EDDAV:  cpu time    0.0062: real time    0.0062
       DOS:  cpu time    0.0001: real time    0.0001
    CHARGE:  cpu time    0.0025: real time    0.0025
    MIXING:  cpu time    0.0005: real time    0.0024
    --------------------------------------------
      LOOP:  cpu time    0.0454: real time    0.0474

 eigenvalue-minimisations  :    24
 total energy-change (2. order) :-0.7420668E-01  (-0.3632498E-01)
 number of electron       2.9999993 magnetization       1.0000003
 augmentation part       -0.0299744 magnetization       0.0248337

 Broyden mixing:
  rms(total) = 0.73696E-01    rms(broyden)= 0.73678E-01
  rms(prec ) = 0.12477E+00
  weight for this iteration     100.00

 eigenvalues of (default mixing * dielectric matrix)
  average eigenvalue GAMMA=   1.1086
  1.4795  0.7378

 Free energy of the ion-electron system (eV)
  ---------------------------------------------------
  alpha Z        PSCENC =         5.86152540
  Ewald energy   TEWEN  =       -52.06145433
  -Hartree energ DENC   =        -0.48122829
  -exchange      EXHF   =         0.00000000
  -V(xc)+E(xc)   XCENC  =         6.62848054
  PAW double counting   =        78.30490901      -77.75906982
  entropy T*S    EENTRO =        -0.11283381
  eigenvalues    EBANDS =       -10.94243730
  atomic energy  EATOM  =        39.92391144
  Solvation  Ediel_sol  =         0.00000000
  ---------------------------------------------------
  free energy    TOTEN  =       -10.63819714 eV

  energy without entropy =      -10.52536333  energy(sigma->0) =      -10.58178023


--------------------------------------------------------------------------------------------------------




--------------------------------------- Iteration      2(   4)  ---------------------------------------


    POTLOK:  cpu time    0.0183: real time    0.0184
    SETDIJ:  cpu time    0.0166: real time    0.0166
     EDDAV:  cpu time    0.0054: real time    0.0054
       DOS:  cpu time    0.0001: real time    0.0001
    CHARGE:  cpu time    0.0023: real time    0.0023
    MIXING:  cpu time    0.0004: real time    0.0004
    --------------------------------------------
      LOOP:  cpu time    0.0431: real time    0.0433

 eigenvalue-minimisations  :    24
 total energy-change (2. order) :-0.2278996E-01  (-0.9243722E-02)
 number of electron       2.9999993 magnetization       1.0000003
 augmentation part       -0.0291457 magnetization       0.0259531

 Broyden mixing:
  rms(total) = 0.13178E-01    rms(broyden)= 0.13154E-01
  rms(prec ) = 0.20901E-01
  weight for this iteration     100.00

 eigenvalues of (default mixing * dielectric matrix)
  average eigenvalue GAMMA=   1.3697
  2.3817  0.9984  0.7292

 Free energy of the ion-electron system (eV)
  ---------------------------------------------------
  alpha Z        PSCENC =         5.86152540
  Ewald energy   TEWEN  =       -52.06145433
  -Hartree energ DENC   =        -0.51977643
  -exchange      EXHF   =         0.00000000
  -V(xc)+E(xc)   XCENC  =         6.59563159
  PAW double counting   =        80.89665594      -80.33783514
  entropy T*S    EENTRO =        -0.11283765
  eigenvalues    EBANDS =       -10.90680793
  atomic energy  EATOM  =        39.92391144
  Solvation  Ediel_sol  =         0.00000000
  ---------------------------------------------------
  free energy    TOTEN  =       -10.66098710 eV

  energy without entropy =      -10.54814944  energy(sigma->0) =      -10.60456827


--------------------------------------------------------------------------------------------------------




--------------------------------------- Iteration      2(   5)  ---------------------------------------


    POTLOK:  cpu time    0.0182: real time    0.0183
    SETDIJ:  cpu time    0.0168: real time    0.0168
     EDDAV:  cpu time    0.0056: real time    0.0056
       DOS:  cpu time    0.0001: real time    0.0001
    CHARGE:  cpu time    0.0025: real time    0.0025
    MIXING:  cpu time    0.0004: real time    0.0004
    --------------------------------------------
      LOOP:  cpu time    0.0436: real time    0.0437

 eigenvalue-minimisations  :    24
 total energy-change (2. order) : 0.1565224E-02  (-0.6264679E-03)
 number of electron       2.9999993 magnetization       1.0000003
 augmentation part       -0.0296488 magnetization       0.0267403

 Broyden mixing:
  rms(total) = 0.56908E-02    rms(broyden)= 0.56463E-02
  rms(prec ) = 0.73283E-02
  weight for this iteration     100.00

 eigenvalues of (default mixing * dielectric matrix)
  average eigenvalue GAMMA=   1.3061
  2.6288  1.1816  0.7693  0.6446

 Free energy of the ion-electron system (eV)
  ---------------------------------------------------
  alpha Z        PSCENC =         5.86152540
  Ewald energy   TEWEN  =       -52.06145433
  -Hartree energ DENC   =        -0.52336906
  -exchange      EXHF   =         0.00000000
  -V(xc)+E(xc)   XCENC  =         6.59574391
  PAW double counting   =        80.49410294      -79.93096591
  entropy T*S    EENTRO =        -0.11283777
  eigenvalues    EBANDS =       -10.90607850
  atomic energy  EATOM  =        39.92391144
  Solvation  Ediel_sol  =         0.00000000
  ---------------------------------------------------
  free energy    TOTEN  =       -10.65942187 eV

  energy without entropy =      -10.54658410  energy(sigma->0) =      -10.60300299


--------------------------------------------------------------------------------------------------------




--------------------------------------- Iteration      2(   6)  ---------------------------------------


    POTLOK:  cpu time    0.0184: real time    0.0185
    SETDIJ:  cpu time    0.0168: real time    0.0168
     EDDAV:  cpu time    0.0056: real time    0.0056
       DOS:  cpu time    0.0001: real time    0.0001
    CHARGE:  cpu time    0.0026: real time    0.0026
    MIXING:  cpu time    0.0005: real time    0.0005
    --------------------------------------------
      LOOP:  cpu time    0.0439: real time    0.0440

 eigenvalue-minimisations  :    24
 total energy-change (2. order) : 0.3850416E-03  (-0.5320918E-04)
 number of electron       2.9999993 magnetization       1.0000003
 augmentation part       -0.0295364 magnetization       0.0266881

 Broyden mixing:
  rms(total) = 0.28871E-02    rms(broyden)= 0.28220E-02
  rms(prec ) = 0.43419E-02
  weight for this iteration     100.00

 eigenvalues of (default mixing * dielectric matrix)
  average eigenvalue GAMMA=   1.2188
  2.6590  1.0348  1.0348  0.7524  0.6130

 Free energy of the ion-electron system (eV)
  ---------------------------------------------------
  alpha Z        PSCENC =         5.86152540
  Ewald energy   TEWEN  =       -52.06145433
  -Hartree energ DENC   =        -0.52521221
  -exchange      EXHF   =         0.00000000
  -V(xc)+E(xc)   XCENC  =         6.59373465
  PAW double counting   =        80.36513149      -79.80341185
  entropy T*S    EENTRO =        -0.11283783
  eigenvalues    EBANDS =       -10.90042361
  atomic energy  EATOM  =        39.92391144
  Solvation  Ediel_sol  =         0.00000000
  ---------------------------------------------------
  free energy    TOTEN  =       -10.65903683 eV

  energy without entropy =      -10.54619900  energy(sigma->0) =      -10.60261792


--------------------------------------------------------------------------------------------------------




--------------------------------------- Iteration      2(   7)  ---------------------------------------


    POTLOK:  cpu time    0.0187: real time    0.0188
    SETDIJ:  cpu time    0.0168: real time    0.0168
     EDDAV:  cpu time    0.0051: real time    0.0052
       DOS:  cpu time    0.0001: real time    0.0001
    CHARGE:  cpu time    0.0026: real time    0.0026
    MIXING:  cpu time    0.0005: real time    0.0005
    --------------------------------------------
      LOOP:  cpu time    0.0438: real time    0.0439

 eigenvalue-minimisations  :    18
 total energy-change (2. order) : 0.1869098E-03  (-0.5886774E-05)
 number of electron       2.9999993 magnetization       1.0000003
 augmentation part       -0.0296083 magnetization       0.0267060

 Broyden mixing:
  rms(total) = 0.89415E-03    rms(broyden)= 0.65965E-03
  rms(prec ) = 0.10945E-02
  weight for this iteration     100.00
  WARNING: grid for Broyden might be to small

 eigenvalues of (default mixing * dielectric matrix)
  average eigenvalue GAMMA=   1.2376
  2.6666  1.3674  1.2130  0.8293  0.7382  0.6114

 Free energy of the ion-electron system (eV)
  ---------------------------------------------------
  alpha Z        PSCENC =         5.86152540
  Ewald energy   TEWEN  =       -52.06145433
  -Hartree energ DENC   =        -0.52666342
  -exchange      EXHF   =         0.00000000
  -V(xc)+E(xc)   XCENC  =         6.59524764
  PAW double counting   =        80.25091452      -79.68741688
  entropy T*S    EENTRO =        -0.11283782
  eigenvalues    EBANDS =       -10.90207648
  atomic energy  EATOM  =        39.92391144
  Solvation  Ediel_sol  =         0.00000000
  ---------------------------------------------------
  free energy    TOTEN  =       -10.65884992 eV

  energy without entropy =      -10.54601210  energy(sigma->0) =      -10.60243101


--------------------------------------------------------------------------------------------------------




--------------------------------------- Iteration      2(   8)  ---------------------------------------


    POTLOK:  cpu time    0.0179: real time    0.0180
    SETDIJ:  cpu time    0.0168: real time    0.0169
     EDDAV:  cpu time    0.0037: real time    0.0037
       DOS:  cpu time    0.0001: real time    0.0001
    --------------------------------------------
      LOOP:  cpu time    0.0385: real time    0.0386

 eigenvalue-minimisations  :    12
 total energy-change (2. order) :-0.3766217E-05  (-0.9346287E-06)
 number of electron       2.9999993 magnetization       1.0000003
 augmentation part       -0.0296083 magnetization       0.0267060

 Free energy of the ion-electron system (eV)
  ---------------------------------------------------
  alpha Z        PSCENC =         5.86152540
  Ewald energy   TEWEN  =       -52.06145433
  -Hartree energ DENC   =        -0.52678755
  -exchange      EXHF   =         0.00000000
  -V(xc)+E(xc)   XCENC  =         6.59534660
  PAW double counting   =        80.20076736      -79.63743694
  entropy T*S    EENTRO =        -0.11283784
  eigenvalues    EBANDS =       -10.90188785
  atomic energy  EATOM  =        39.92391144
  Solvation  Ediel_sol  =         0.00000000
  ---------------------------------------------------
  free energy    TOTEN  =       -10.65885369 eV

  energy without entropy =      -10.54601585  energy(sigma->0) =      -10.60243477


--------------------------------------------------------------------------------------------------------




 average (electrostatic) potential at core
  the test charge radii are     0.9943  0.5201
  (the norm of the test charge is              1.0000)
       1 -27.0209       2 -33.2269



 E-fermi :   5.4416     XC(G=0): -10.3358     alpha+bet :-12.3183

 Fermi energy:         5.4415589039

 spin component 1

 k-point     1 :       0.0000    0.0000    0.0000
  band No.  band energies     occupation 
      1      -8.6216      1.00000
      2       5.4414      0.50047
      3       5.4417      0.49953
      4       7.8168      0.00000
      5      13.2691      0.00000
      6      26.0823      0.00000
 Fermi energy:         5.4415589039

 spin component 2

 k-point     1 :       0.0000    0.0000    0.0000
  band No.  band energies     occupation 
      1      -7.7219      1.00000
      2       7.9722      0.00000
      3       7.9727      0.00000
      4       8.5670      0.00000
      5      13.7908      0.00000
      6      27.0834      0.00000


--------------------------------------------------------------------------------------------------------


 soft charge-density along one line, spin component           1
         0         1         2         3         4         5         6         7         8         9
 total charge-density along one line

 soft charge-density along one line, spin component           2
         0         1         2         3         4         5         6         7         8         9
 total charge-density along one line

 pseudopotential strength for first ion, spin component:           1
  3.913  -7.546   0.000   0.000  -0.000  -0.000  -0.000   0.000
 -7.546  31.731  -0.000  -0.000   0.000   0.000   0.000  -0.000
  0.000  -0.000  -0.859  -0.000  -0.000   3.243  -0.000  -0.000
  0.000  -0.000  -0.000  -0.877  -0.000  -0.000   3.250  -0.000
 -0.000   0.000  -0.000  -0.000  -0.859  -0.000  -0.000   3.243
 -0.000   0.000   3.243  -0.000  -0.000 -46.913   0.000   0.000
 -0.000   0.000  -0.000   3.250  -0.000   0.000 -46.904   0.000
  0.000  -0.000  -0.000  -0.000   3.243   0.000   0.000 -46.913
  0.000   0.000   0.000   0.000  -0.000   0.000   0.000  -0.000
  0.000   0.000  -0.000  -0.000   0.000  -0.000  -0.000   0.000
  0.017   0.053   0.000  -0.000  -0.000   0.000  -0.000  -0.000
  0.000   0.000   0.000   0.000  -0.000   0.000   0.000  -0.000
  0.000   0.000   0.000   0.000   0.000   0.000   0.000   0.000
 pseudopotential strength for first ion, spin component:           2
  3.743  -7.152   0.000   0.000  -0.000  -0.000  -0.000   0.000
 -7.152  30.815  -0.000  -0.000   0.000   0.000   0.000  -0.000
  0.000  -0.000  -0.941   0.000   0.000   3.660   0.000   0.000
  0.000  -0.000   0.000  -0.970   0.000   0.000   3.543   0.000
 -0.000   0.000   0.000   0.000  -0.941   0.000   0.000   3.661
 -0.000   0.000   3.660   0.000   0.000 -48.325  -0.000  -0.000
 -0.000   0.000   0.000   3.543   0.000  -0.000 -47.519  -0.000
  0.000  -0.000   0.000   0.000   3.661  -0.000  -0.000 -48.326
 -0.000  -0.000   0.000   0.000  -0.000   0.000   0.000  -0.000
 -0.000  -0.000  -0.000  -0.000   0.000  -0.000  -0.000   0.000
  0.108   0.040   0.000  -0.000  -0.000   0.000  -0.000  -0.000
 -0.000  -0.000   0.000   0.000  -0.000   0.000   0.000  -0.000
 -0.000  -0.000   0.000   0.000   0.000   0.000   0.000   0.000
 total augmentation occupancy for first ion, spin component:           1
  1.892   0.077   0.000   0.000   0.000   0.000   0.000   0.000   0.000   0.000   0.016  -0.000   0.000
  0.077   0.003   0.000   0.000   0.000   0.000   0.000   0.000   0.000   0.000   0.001  -0.000   0.000
  0.000   0.000   1.472   0.000  -0.000   0.019   0.000  -0.000   0.000   0.000   0.000   0.000   0.000
  0.000   0.000   0.000   0.000   0.000   0.000  -0.000   0.000   0.000   0.000   0.000   0.000   0.000
  0.000   0.000  -0.000   0.000   1.472  -0.000   0.000   0.019   0.000   0.000   0.000   0.000   0.000
  0.000   0.000   0.019   0.000  -0.000   0.000   0.000  -0.000   0.000   0.000   0.000   0.000   0.000
  0.000   0.000   0.000  -0.000   0.000   0.000   0.000   0.000   0.000   0.000   0.000   0.000   0.000
  0.000   0.000  -0.000  -0.000   0.019  -0.000   0.000   0.000   0.000   0.000   0.000   0.000   0.000
  0.000   0.000   0.000   0.000   0.000   0.000   0.000   0.000   0.000   0.000   0.000   0.000  -0.000
  0.000   0.000   0.000   0.000   0.000   0.000   0.000   0.000   0.000   0.000   0.000  -0.000  -0.000
  0.016   0.001   0.000   0.000   0.000   0.000   0.000   0.000   0.000   0.000   0.000  -0.000   0.000
 -0.000  -0.000   0.000   0.000   0.000   0.000   0.000   0.000   0.000  -0.000  -0.000   0.000  -0.000
  0.000   0.000   0.000   0.000   0.000   0.000   0.000   0.000  -0.000  -0.000   0.000  -0.000   0.000
 total augmentation occupancy for first ion, spin component:           2
  0.218   0.013   0.000   0.000   0.000   0.000   0.000   0.000  -0.000   0.000  -0.003   0.000  -0.000
  0.013   0.001   0.000   0.000   0.000   0.000   0.000   0.000  -0.000  -0.000  -0.000   0.000  -0.000
  0.000   0.000   1.472   0.000  -0.000   0.019  -0.000  -0.000   0.000   0.000   0.000   0.000   0.000
  0.000   0.000   0.000   0.000   0.000   0.000  -0.000  -0.000   0.000   0.000   0.000   0.000   0.000
  0.000   0.000  -0.000   0.000   1.472  -0.000  -0.000   0.019   0.000   0.000   0.000   0.000   0.000
  0.000   0.000   0.019   0.000  -0.000   0.000   0.000  -0.000   0.000   0.000   0.000   0.000   0.000
  0.000   0.000  -0.000  -0.000   0.000   0.000   0.000  -0.000   0.000   0.000   0.000   0.000   0.000
  0.000   0.000  -0.000  -0.000   0.019  -0.000  -0.000   0.000   0.000   0.000   0.000   0.000   0.000
 -0.000  -0.000   0.000   0.000   0.000   0.000   0.000   0.000  -0.000   0.000  -0.000  -0.000   0.000
  0.000  -0.000   0.000   0.000   0.000   0.000   0.000   0.000   0.000  -0.000   0.000   0.000   0.000
 -0.003  -0.000   0.000   0.000   0.000   0.000   0.000   0.000  -0.000   0.000  -0.000   0.000  -0.000
  0.000   0.000   0.000   0.000   0.000   0.000   0.000   0.000  -0.000   0.000   0.000  -0.000   0.000
 -0.000  -0.000   0.000   0.000   0.000   0.000   0.000   0.000   0.000   0.000  -0.000   0.000  -0.000


------------------------ aborting loop because EDIFF is reached ----------------------------------------


    CHARGE:  cpu time    0.0025: real time    0.0025
    FORLOC:  cpu time    0.0006: real time    0.0006
    FORNL :  cpu time    0.0073: real time    0.0073
    STRESS:  cpu time    0.0238: real time    0.0239
    FORCOR:  cpu time    0.0178: real time    0.0179
    FORHAR:  cpu time    0.0020: real time    0.0020
    MIXING:  cpu time    0.0005: real time    0.0005
    OFIELD:  cpu time    0.0000: real time    0.0000

  FORCE on cell =-STRESS in cart. coord.  units (eV):
  Direction    XX          YY          ZZ          XY          YZ          ZX
  --------------------------------------------------------------------------------------
  Alpha Z     5.86153     5.86153     5.86153
  Ewald     -24.24482   -24.24484    -3.57178     0.00000     0.00000    -0.00000
  Hartree     0.03864     0.03864     0.44931    -0.00000    -0.00000     0.00000
  E(xc)      -8.21105    -8.21108    -8.04023    -0.00001     0.00003     0.00000
  Local      -0.25564    -0.25648    -2.04134     0.00002     0.00025     0.00000
  n-local     0.82334     0.82629     2.09830     0.00010    -0.00002    -0.00000
  augment    -0.18064    -0.18065    -0.07352    -0.00013    -0.00001     0.00000
  Kinetic    23.58147    23.57462     1.40339    -0.00090     0.00001     0.00000
  Fock        0.00000     0.00000     0.00000     0.00000     0.00000     0.00000
  -------------------------------------------------------------------------------------
  Total      -2.58957    -2.58957    -3.91435     0.00000    -0.00000    -0.00000
  in kB    -357.24844  -357.24874  -540.00995     0.00015    -0.00000    -0.00000
  external pressure =     -418.17 kB  Pullay stress =        0.00 kB


 VOLUME and BASIS-vectors are now :
 -----------------------------------------------------------------------------
  energy-cutoff  :      250.00
  volume of cell :       11.61
      direct lattice vectors                 reciprocal lattice vectors
     1.971929160  1.971929390  0.000000000     0.507117579  0.000000030  0.000000000
    -0.000000230  3.943860239  0.000000000    -0.253558696  0.253558666 -0.000000000
    -0.000000000 -0.000000000  1.493327929    -0.000000000 -0.000000000  0.669645281

  length of vectors
     2.788729124  3.943860239  1.493327929     0.507117579  0.358586125  0.669645281


 FORCES acting on ions
    electron-ion (+dipol)            ewald-force                    non-local-force                 convergence-correction
 -----------------------------------------------------------------------------------------------
   -.123E-08 0.500E-07 0.310E-08   0.151E-06 -.587E-05 -.367E-06   0.241E-22 -.113E-21 0.114E-24   -.588E-12 0.204E-10 0.187E-12
   -.201E-06 0.781E-05 0.994E-05   -.151E-06 0.587E-05 0.367E-06   -.130E-22 0.840E-23 -.797E-24   0.188E-10 0.254E-09 0.238E-09
 -----------------------------------------------------------------------------------------------
   -.202E-06 0.786E-05 0.995E-05   0.436E-16 -.188E-17 0.746E-15   0.111E-22 -.105E-21 -.683E-24   0.182E-10 0.274E-09 0.238E-09


 POSITION                                       TOTAL-FORCE (eV/Angst)
 -----------------------------------------------------------------------------------
     -0.00000      0.00000      0.00000        -0.000000     -0.000000     -0.000000
     -0.00000      1.97193      0.74666         0.000000      0.000000      0.000000
 -----------------------------------------------------------------------------------
    total drift:                               -0.000000      0.000008      0.000010


--------------------------------------------------------------------------------------------------------



  FREE ENERGIE OF THE ION-ELECTRON SYSTEM (eV)
  ---------------------------------------------------
  free  energy   TOTEN  =       -10.65885369 eV

  energy  without entropy=      -10.54601585  energy(sigma->0) =      -10.60243477

 d Force = 0.0000000E+00[ 0.000E+00, 0.000E+00]  d Energy = 0.5793360E+01-0.579E+01
 d Force = 0.0000000E+00[ 0.000E+00, 0.000E+00]  d Ewald  =-0.3179187E+01 0.318E+01


--------------------------------------------------------------------------------------------------------


    POTLOK:  cpu time    0.0362: real time    0.2656


--------------------------------------------------------------------------------------------------------


 Steepest descent step on ions:
 trial-energy change:   -5.793360  1 .order   -4.677588   -9.210688   -0.144487
  (g-gl).g = 0.921E+01      g.g   = 0.921E+01  gl.gl    = 0.000E+00
 g(Force)  = 0.610E-46   g(Stress)= 0.921E+01 ortho     = 0.000E+00
 gamma     =   0.00000
 trial     =   1.00000
 opt step  =   1.00913  (harmonic =   1.01594) maximal distance =0.00000000
 next E    =   -10.659514   (d E  =  -5.79402)


--------------------------------------------------------------------------------------------------------


    WAVPRE:  cpu time    0.0028: real time    0.7590
    FEWALD:  cpu time    0.0001: real time    0.0001
    GENKIN:  cpu time    0.0000: real time    0.0000
    ORTHCH:  cpu time    0.0001: real time    0.0001
     LOOP+:  cpu time    0.4619: real time    2.0314
ge      EXHF   =         0.00000000
  -V(xc)+E(xc)   XCENC  =         6.58991339
  PAW double counting   =        69.57626194      -69.06796009
  entropy T*S    EENTRO =        -0.11283789
  eigenvalues    EBANDS =       -10.73831998
  atomic energy  EATOM  =        39.92391144
  Solvation  Ediel_sol  =         0.00000000
  ---------------------------------------------------
  free energy    TOTEN  =       -10.51075108 eV

  energy without entropy =      -10.39791319  energy(sigma->0) =      -10.45433213


--------------------------------------------------------------------------------------------------------




--------------------------------------- Iteration      2(   2)  ---------------------------------------


    POTLOK:  cpu time    0.0181: real time    0.0511
    SETDIJ:  cpu time    0.0168: real time    0.0299
     EDDAV:  cpu time    0.0068: real time    0.0068
       DOS:  cpu time    0.0001: real time    0.0002
    CHARGE:  cpu time    0.0024: real time    0.0024
    MIXING:  cpu time    0.0004: real time    0.0004
    --------------------------------------------
      LOOP:  cpu time    0.0447: real time    0.0908

 eigenvalue-minimisations  :    30
 total energy-change (2. order) :-0.5323938E-01  (-0.9153912E-01)
 number of electron       2.9999993 magnetization       1.0000002
 augmentation part       -0.0294652 magnetization       0.0246283

 Broyden mixing:
  rms(total) = 0.11585E+00    rms(broyden)= 0.11540E+00
  rms(prec ) = 0.28593E+00
  weight for this iteration     100.00

 eigenvalues of (default mixing * dielectric matrix)
  average eigenvalue GAMMA=   0.8493
  0.8493

 Free energy of the ion-electron system (eV)
  ---------------------------------------------------
  alpha Z        PSCENC =         5.86152540
  Ewald energy   TEWEN  =       -52.06145433
  -Hartree energ DENC   =        -0.44752201
  -exchange      EXHF   =         0.00000000
  -V(xc)+E(xc)   XCENC  =         6.58396067
  PAW double counting   =        73.76207071      -73.22986632
  entropy T*S    EENTRO =        -0.11274003
  eigenvalues    EBANDS =       -10.84387600
  atomic energy  EATOM  =        39.92391144
  Solvation  Ediel_sol  =         0.00000000
  ---------------------------------------------------
  free energy    TOTEN  =       -10.56399045 eV

  energy without entropy =      -10.45125043  energy(sigma->0) =      -10.50762044


--------------------------------------------------------------------------------------------------------




--------------------------------------- Iteration      2(   3)  ---------------------------------------


    POTLOK:  cpu time    0.0189: real time    0.0190
    SETDIJ:  cpu time    0.0165: real time    0.0166
     EDDAV:  cpu time    0.0059: real time    0.0059
       DOS:  cpu time    0.0001: real time    0.0001
    CHARGE:  cpu time    0.0026: real time    0.0026
    MIXING:  cpu time    0.0004: real time    0.0004
    --------------------------------------------
      LOOP:  cpu time    0.0444: real time    0.0446

 eigenvalue-minimisations  :    24
 total energy-change (2. order) :-0.7420668E-01  (-0.3632498E-01)
 number of electron       2.9999993 magnetization       1.0000003
[...]
  rms(prec ) = 0.27682E-01
  weight for this iteration     100.00

 eigenvalues of (default mixing * dielectric matrix)
  average eigenvalue GAMMA=   1.0465
  1.0465

 Free energy of the ion-electron system (eV)
  ---------------------------------------------------
  alpha Z        PSCENC =         7.76652320
  Ewald energy   TEWEN  =       -55.48946276
  -Hartree energ DENC   =        -0.67505643
  -exchange      EXHF   =         0.00000000
  -V(xc)+E(xc)   XCENC  =         7.27135221
  PAW double counting   =       119.27736009     -118.77200155
  entropy T*S    EENTRO =        -0.11283780
  eigenvalues    EBANDS =       -10.35124540
  atomic energy  EATOM  =        39.92391144
  Solvation  Ediel_sol  =         0.00000000
  ---------------------------------------------------
  free energy    TOTEN  =       -11.16145699 eV

  energy without entropy =      -11.04861920  energy(sigma->0) =      -11.10503810


--------------------------------------------------------------------------------------------------------




--------------------------------------- Iteration      5(   3)  ---------------------------------------


    POTLOK:  cpu time    0.0180: real time    0.0182
    SETDIJ:  cpu time    0.0172: real time    0.0172
     EDDAV:  cpu time    0.0056: real time    0.0057
       DOS:  cpu time    0.0001: real time    0.0002
    CHARGE:  cpu time    0.0028: real time    0.0028
    MIXING:  cpu time    0.0004: real time    0.0004
    --------------------------------------------
      LOOP:  cpu time    0.0441: real time    0.0445

 eigenvalue-minimisations  :    24
 total energy-change (2. order) : 0.9681611E-03  (-0.1565260E-03)
 number of electron       2.9999998 magnetization       0.9999999
 augmentation part       -0.0344047 magnetization       0.0328932

 Broyden mixing:
  rms(total) = 0.54254E-02    rms(broyden)= 0.53767E-02
  rms(prec ) = 0.96066E-02
  weight for this iteration     100.00

 eigenvalues of (default mixing * dielectric matrix)
  average eigenvalue GAMMA=   1.2930
  1.9406  0.6454

 Free energy of the ion-electron system (eV)
  ---------------------------------------------------
  alpha Z        PSCENC =         7.76652320
  Ewald energy   TEWEN  =       -55.48946276
  -Hartree energ DENC   =        -0.68342961
  -exchange      EXHF   =         0.00000000
  -V(xc)+E(xc)   XCENC  =         7.27455771
  PAW double counting   =       124.13269406     -123.64788297
  entropy T*S    EENTRO =        -0.11283775
  eigenvalues    EBANDS =       -10.32456216
  atomic energy  EATOM  =        39.92391144
  Solvation  Ediel_sol  =         0.00000000
  ---------------------------------------------------
  free energy    TOTEN  =       -11.16048883 eV

  energy without entropy =      -11.04765109  energy(sigma->0) =      -11.10406996


--------------------------------------------------------------------------------------------------------




--------------------------------------- Iteration      5(   4)  ---------------------------------------


    POTLOK:  cpu time    0.0187: real time    0.0188
    SETDIJ:  cpu time    0.0170: real time    0.0171
     EDDAV:  cpu time    0.0061: real time    0.0061
       DOS:  cpu time    0.0001: real time    0.0002
    CHARGE:  cpu time    0.0027: real time    0.0027
    MIXING:  cpu time    0.0004: real time    0.0004
    --------------------------------------------
      LOOP:  cpu time    0.0450: real time    0.0453

 eigenvalue-minimisations  :    24
 total energy-change (2. order) : 0.2067223E-03  (-0.4548777E-04)
 number of electron       2.9999998 magnetization       0.9999999
 augmentation part       -0.0346225 magnetization       0.0329698

 Broyden mixing:
  rms(total) = 0.21489E-02    rms(broyden)= 0.20316E-02
  rms(prec ) = 0.37628E-02
  weight for this iteration     100.00

 eigenvalues of (default mixing * dielectric matrix)
  average eigenvalue GAMMA=   1.2805
  2.2658  0.9388  0.6367

 Free energy of the ion-electron system (eV)
  ---------------------------------------------------
  alpha Z        PSCENC =         7.76652320
  Ewald energy   TEWEN  =       -55.48946276
  -Hartree energ DENC   =        -0.68512820
  -exchange      EXHF   =         0.00000000
  -V(xc)+E(xc)   XCENC  =         7.27593818
  PAW double counting   =       125.55829389     -125.06765302
  entropy T*S    EENTRO =        -0.11283778
  eigenvalues    EBANDS =       -10.32986706
  atomic energy  EATOM  =        39.92391144
  Solvation  Ediel_sol  =         0.00000000
  ---------------------------------------------------
  free energy    TOTEN  =       -11.16028211 eV

  energy without entropy =      -11.04744433  energy(sigma->0) =      -11.10386322


--------------------------------------------------------------------------------------------------------




--------------------------------------- Iteration      5(   5)  ---------------------------------------


    POTLOK:  cpu time    0.0180: real time    0.0182
    SETDIJ:  cpu time    0.0171: real time    0.0172
     EDDAV:  cpu time    0.0047: real time    0.0047
       DOS:  cpu time    0.0001: real time    0.0002
    CHARGE:  cpu time    0.0029: real time    0.0029
    MIXING:  cpu time    0.0004: real time    0.0004
    --------------------------------------------
      LOOP:  cpu time    0.0432: real time    0.0436

 eigenvalue-minimisations  :    18
 total energy-change (2. order) : 0.1738737E-03  (-0.6517832E-05)
 number of electron       2.9999998 magnetization       0.9999999
 augmentation part       -0.0345294 magnetization       0.0328931

 Broyden mixing:
  rms(total) = 0.98791E-03    rms(broyden)= 0.70295E-03
  rms(prec ) = 0.11140E-02
  weight for this iteration     100.00
  WARNING: grid for Broyden might be to small

 eigenvalues of (default mixing * dielectric matrix)
  average eigenvalue GAMMA=   1.3364
  2.4993  1.4458  0.7535  0.6472

 Free energy of the ion-electron system (eV)
  ---------------------------------------------------
  alpha Z        PSCENC =         7.76652320
  Ewald energy   TEWEN  =       -55.48946276
  -Hartree energ DENC   =        -0.68332060
  -exchange      EXHF   =         0.00000000
  -V(xc)+E(xc)   XCENC  =         7.27527421
  PAW double counting   =       126.47838877     -125.99221948
  entropy T*S    EENTRO =        -0.11283779
  eigenvalues    EBANDS =       -10.32636522
  atomic energy  EATOM  =        39.92391144
  Solvation  Ediel_sol  =         0.00000000
  ---------------------------------------------------
  free energy    TOTEN  =       -11.16010824 eV

  energy without entropy =      -11.04727045  energy(sigma->0) =      -11.10368934


--------------------------------------------------------------------------------------------------------




--------------------------------------- Iteration      5(   6)  ---------------------------------------


    POTLOK:  cpu time    0.0186: real time    0.0187
    SETDIJ:  cpu time    0.0171: real time    0.0172
     EDDAV:  cpu time    0.0041: real time    0.0041
       DOS:  cpu time    0.0001: real time    0.0002
    --------------------------------------------
      LOOP:  cpu time    0.0399: real time    0.0402

 eigenvalue-minimisations  :    12
 total energy-change (2. order) :-0.7119833E-05  (-0.4339763E-06)
 number of electron       2.9999998 magnetization       0.9999999
 augmentation part       -0.0345294 magnetization       0.0328931

 Free energy of the ion-electron system (eV)
  ---------------------------------------------------
  alpha Z        PSCENC =         7.76652320
  Ewald energy   TEWEN  =       -55.48946276
  -Hartree energ DENC   =        -0.68293173
  -exchange      EXHF   =         0.00000000
  -V(xc)+E(xc)   XCENC  =         7.27579368
  PAW double counting   =       126.81538804     -126.32963998
  entropy T*S    EENTRO =        -0.11283778
  eigenvalues    EBANDS =       -10.32685946
  atomic energy  EATOM  =        39.92391144
  Solvation  Ediel_sol  =         0.00000000
  ---------------------------------------------------
  free energy    TOTEN  =       -11.16011536 eV

  energy without entropy =      -11.04727758  energy(sigma->0) =      -11.10369647


--------------------------------------------------------------------------------------------------------




 average (electrostatic) potential at core
  the test charge radii are     0.9943  0.5201
  (the norm of the test charge is              1.0000)
       1 -27.1038       2 -31.1797



 E-fermi :   6.0149     XC(G=0): -11.2698     alpha+bet :-16.3217

 Fermi energy:         6.0149487183

 spin component 1

 k-point     1 :       0.0000    0.0000    0.0000
  band No.  band energies     occupation 
      1      -8.6492      1.00000
      2       6.0147      0.50062
      3       6.0152      0.49938
      4      11.0369      0.00000
      5      15.1901      0.00000
      6      29.8026      0.00000
 Fermi energy:         6.0149487183

 spin component 2

 k-point     1 :       0.0000    0.0000    0.0000
  band No.  band energies     occupation 
      1      -7.6926      1.00000
      2       8.8833      0.00000
      3       8.8841      0.00000
      4      12.0861      0.00000
      5      15.8189      0.00000
      6      30.8889      0.00000


--------------------------------------------------------------------------------------------------------


 soft charge-density along one line, spin component           1
         0         1         2         3         4         5         6         7         8         9
 total charge-density along one line

 soft charge-density along one line, spin component           2
         0         1         2         3         4         5         6         7         8         9
 total charge-density along one line

 pseudopotential strength for first ion, spin component:           1
  3.957  -7.628   0.000   0.000  -0.000  -0.000  -0.000   0.000
 -7.628  31.936  -0.000  -0.000   0.000   0.000   0.000  -0.000
  0.000  -0.000  -0.852  -0.000   0.000   3.172  -0.000   0.000
  0.000  -0.000  -0.000  -0.880  -0.000  -0.000   3.118  -0.000
 -0.000   0.000   0.000  -0.000  -0.852   0.000  -0.000   3.171
 -0.000   0.000   3.172  -0.000   0.000 -46.520   0.000  -0.000
 -0.000   0.000  -0.000   3.118  -0.000   0.000 -46.142   0.000
  0.000  -0.000   0.000  -0.000   3.171  -0.000   0.000 -46.519
 -0.000  -0.000   0.000   0.000  -0.000   0.000   0.000  -0.000
  0.000   0.000  -0.000  -0.000   0.000  -0.000  -0.000   0.000
  0.068   0.066   0.000  -0.000  -0.000   0.000  -0.000  -0.000
  0.000   0.000   0.000   0.000  -0.000   0.000   0.000  -0.000
  0.000   0.000   0.000   0.000   0.000   0.000   0.000   0.000
 pseudopotential strength for first ion, spin component:           2
  3.777  -7.210   0.000   0.000  -0.000  -0.000  -0.000   0.000
 -7.210  30.933  -0.000  -0.000   0.000   0.000   0.000  -0.000
  0.000  -0.000  -0.917   0.000  -0.000   3.630   0.000  -0.000
  0.000  -0.000   0.000  -0.958   0.000   0.000   3.460   0.000
 -0.000   0.000  -0.000   0.000  -0.917  -0.000   0.000   3.630
 -0.000   0.000   3.630   0.000  -0.000 -48.366  -0.000   0.000
 -0.000   0.000   0.000   3.460   0.000  -0.000 -47.202  -0.000
  0.000  -0.000  -0.000   0.000   3.630   0.000  -0.000 -48.367
  0.000   0.000   0.000  -0.000  -0.000   0.000  -0.000  -0.000
 -0.000  -0.000  -0.000  -0.000  -0.000  -0.000  -0.000  -0.000
  0.157   0.056   0.000  -0.000  -0.000   0.000  -0.000  -0.000
 -0.000  -0.000  -0.000   0.000  -0.000  -0.000   0.000  -0.000
 -0.000  -0.000   0.000  -0.000   0.000   0.000  -0.000   0.000
 total augmentation occupancy for first ion, spin component:           1
  2.310   0.103   0.000   0.000   0.000   0.000   0.000   0.000  -0.000   0.000  -0.015  -0.000  -0.000
  0.103   0.005   0.000   0.000   0.000   0.000   0.000   0.000  -0.000  -0.000  -0.001   0.000  -0.000
  0.000   0.000   1.851  -0.000  -0.000   0.012   0.000  -0.000   0.000   0.000   0.000   0.000   0.000
  0.000   0.000  -0.000   0.000   0.000  -0.000   0.000   0.000   0.000   0.000   0.000   0.000   0.000
  0.000   0.000  -0.000   0.000   1.851  -0.000   0.000   0.012   0.000   0.000   0.000   0.000   0.000
  0.000   0.000   0.012  -0.000  -0.000   0.000  -0.000  -0.000   0.000   0.000   0.000   0.000   0.000
  0.000   0.000  -0.000   0.000  -0.000  -0.000   0.000  -0.000   0.000   0.000   0.000   0.000   0.000
  0.000   0.000  -0.000   0.000   0.012  -0.000  -0.000   0.000   0.000   0.000   0.000   0.000   0.000
 -0.000  -0.000   0.000   0.000   0.000   0.000   0.000   0.000   0.000   0.000   0.000  -0.000   0.000
  0.000  -0.000   0.000   0.000   0.000   0.000   0.000   0.000   0.000   0.000   0.000  -0.000   0.000
 -0.015  -0.001   0.000   0.000   0.000   0.000   0.000   0.000   0.000   0.000   0.000   0.000   0.000
 -0.000   0.000   0.000   0.000   0.000   0.000   0.000   0.000  -0.000  -0.000  -0.000   0.000   0.000
 -0.000  -0.000   0.000   0.000   0.000   0.000   0.000   0.000   0.000   0.000   0.000   0.000   0.000
 total augmentation occupancy for first ion, spin component:           2
  0.264   0.014   0.000   0.000   0.000   0.000   0.000   0.000  -0.000  -0.000  -0.003  -0.000  -0.000
  0.014   0.001   0.000   0.000   0.000   0.000   0.000   0.000  -0.000   0.000  -0.000   0.000  -0.000
  0.000   0.000   1.851  -0.000  -0.000   0.012   0.000  -0.000   0.000   0.000   0.000   0.000   0.000
  0.000   0.000  -0.000   0.000   0.000  -0.000   0.000   0.000   0.000   0.000   0.000   0.000   0.000
  0.000   0.000  -0.000   0.000   1.851  -0.000  -0.000   0.012   0.000   0.000   0.000   0.000   0.000
  0.000   0.000   0.012  -0.000  -0.000   0.000   0.000  -0.000   0.000   0.000   0.000   0.000   0.000
  0.000   0.000   0.000   0.000   0.000   0.000   0.000  -0.000   0.000   0.000   0.000   0.000   0.000
  0.000   0.000  -0.000   0.000   0.012  -0.000  -0.000   0.000   0.000   0.000   0.000   0.000   0.000
 -0.000  -0.000   0.000   0.000   0.000   0.000   0.000   0.000  -0.000   0.000   0.000  -0.000  -0.000
 -0.000   0.000   0.000   0.000   0.000   0.000   0.000   0.000   0.000  -0.000   0.000   0.000   0.000
 -0.003  -0.000   0.000   0.000   0.000   0.000   0.000   0.000   0.000   0.000   0.000   0.000   0.000
 -0.000   0.000   0.000   0.000   0.000   0.000   0.000   0.000  -0.000   0.000   0.000  -0.000  -0.000
 -0.000  -0.000   0.000   0.000   0.000   0.000   0.000   0.000  -0.000   0.000   0.000  -0.000   0.000


------------------------ aborting loop because EDIFF is reached ----------------------------------------


    CHARGE:  cpu time    0.0027: real time    0.0027
    FORLOC:  cpu time    0.0006: real time    0.0006
    FORNL :  cpu time    0.0091: real time    0.0092
    STRESS:  cpu time    0.0307: real time    0.0309
    FORCOR:  cpu time    0.0179: real time    0.0179
    FORHAR:  cpu time    0.0020: real time    0.0021
    MIXING:  cpu time    0.0004: real time    0.0004
    OFIELD:  cpu time    0.0000: real time    0.0000

  FORCE on cell =-STRESS in cart. coord.  units (eV):
  Direction    XX          YY          ZZ          XY          YZ          ZX
  --------------------------------------------------------------------------------------
  Alpha Z     7.76652     7.76652     7.76652
  Ewald     -28.32959   -28.32961     1.16976     0.00000     0.00000    -0.00000
  Hartree     0.02590     0.02591     0.63065     0.00000    -0.00000    -0.00000
  E(xc)      -8.98084    -8.98083    -8.77660     0.00002     0.00003     0.00000
  Local      -0.24484    -0.24525    -2.07589     0.00001     0.00013     0.00000
  n-local     1.21862     1.22358     1.82525     0.00051    -0.00001    -0.00000
  augment    -0.23986    -0.24006     0.00567    -0.00010    -0.00002    -0.00000
  Kinetic    26.74922    26.73904     0.99694    -0.00595     0.00000     0.00000
  Fock        0.00000     0.00000     0.00000     0.00000     0.00000     0.00000
  -------------------------------------------------------------------------------------
  Total      -2.03779    -2.03780     1.54230     0.00000     0.00000     0.00000
  in kB    -372.49372  -372.49400   281.92068     0.00014     0.00000     0.00000
  external pressure =     -154.36 kB  Pullay stress =        0.00 kB


 VOLUME and BASIS-vectors are now :
 -----------------------------------------------------------------------------
  energy-cutoff  :      250.00
  volume of cell :        8.77
      direct lattice vectors                 reciprocal lattice vectors
     1.854683685  1.854683790  0.000000000     0.539175483  0.000000015 -0.000000000
    -0.000000105  3.709368842 -0.000000000    -0.269587650  0.269587635  0.000000000
     0.000000000 -0.000000000  1.274037357    -0.000000000  0.000000000  0.784906341

  length of vectors
     2.622918896  3.709368842  1.274037357     0.539175483  0.381254500  0.784906341


 FORCES acting on ions
    electron-ion (+dipol)            ewald-force                    non-local-force                 convergence-correction
 -----------------------------------------------------------------------------------------------
   -.196E-08 0.779E-07 0.214E-08   0.190E-06 -.738E-05 -.206E-06   -.571E-23 -.133E-22 0.481E-24   -.556E-13 0.409E-11 -.614E-13
   -.244E-06 0.948E-05 0.784E-05   -.190E-06 0.738E-05 0.206E-06   -.607E-23 -.509E-23 -.213E-23   -.229E-10 0.879E-09 0.143E-09
 -----------------------------------------------------------------------------------------------
   -.246E-06 0.956E-05 0.784E-05   0.419E-16 0.103E-16 -.460E-15   -.118E-22 -.183E-22 -.165E-23   -.230E-10 0.883E-09 0.143E-09


 POSITION                                       TOTAL-FORCE (eV/Angst)
 -----------------------------------------------------------------------------------
     -0.00000      0.00000      0.00000        -0.000000      0.000000      0.000000
     -0.00000      1.85468      0.63702         0.000000     -0.000000     -0.000000
 -----------------------------------------------------------------------------------
    total drift:                               -0.000000      0.000010      0.000008


--------------------------------------------------------------------------------------------------------



  FREE ENERGIE OF THE ION-ELECTRON SYSTEM (eV)
  ---------------------------------------------------
  free  energy   TOTEN  =       -11.16011536 eV

  energy  without entropy=      -11.04727758  energy(sigma->0) =      -11.10369647

 d Force = 0.0000000E+00[ 0.000E+00, 0.000E+00]  d Energy = 0.2616435E-01-0.262E-01
 d Force = 0.0000000E+00[ 0.000E+00, 0.000E+00]  d Ewald  = 0.7103159E+00-0.710E+00


--------------------------------------------------------------------------------------------------------


    POTLOK:  cpu time    0.0359: real time    0.0360


--------------------------------------------------------------------------------------------------------




--------------------------------------------------------------------------------------------------------


 writing wavefunctions
     LOOP+:  cpu time    0.3815: real time    2.4249
    4ORBIT:  cpu time    0.0000: real time    0.0000

 total amount of memory used by VASP MPI-rank0    31322. kBytes
=======================================================================

   base      :      30000. kBytes
   nonl-proj :         11. kBytes
   fftplans  :        356. kBytes
   grid      :        929. kBytes
   one-center:         16. kBytes
   wavefun   :         10. kBytes

  
  
 General timing and accounting informations for this job:
 ========================================================
  
                  Total CPU time used (sec):        2.087
                            User time (sec):        1.881
                          System time (sec):        0.206
                         Elapsed time (sec):       28.108
  
                   Maximum memory used (kb):      218252.
                   Average memory used (kb):          N/A
  
                          Minor page faults:        10453
                          Major page faults:          146
                 Voluntary context switches:         2194
