 vasp.6.2.1 16May21 (build Dec 20 2021 17:15:01) gamma-only                      
 executed on             LinuxGNU date 2026.01.18  17:32:37
 running on    1 total cores
 distrk:  each k-point on    1 cores,    1 groups
 distr:  one band on NCORE=   1 cores,    1 groups


--------------------------------------------------------------------------------------------------------


 INCAR:
   ISMEAR = 0
   ISPIN = 2
   NSW = 5
   IBRION = 2

 POTCAR:    PAW_PBE Be_GW 04Mar2008               
 POTCAR:    PAW_PBE H 15Jun2001                   
 -----------------------------------------------------------------------------
|                                                                             |
|           W    W    AA    RRRRR   N    N  II  N    N   GGGG   !!!           |
|           W    W   A  A   R    R  NN   N  II  NN   N  G    G  !!!           |
|           W    W  A    A  R    R  N N  N  II  N N  N  G       !!!           |
|           W WW W  AAAAAA  RRRRR   N  N N  II  N  N N  G  GGG   !            |
|           WW  WW  A    A  R   R   N   NN  II  N   NN  G    G                |
|           W    W  A    A  R    R  N    N  II  N    N   GGGG   !!!           |
|                                                                             |
|     You use a magnetic or noncollinear calculation, but did not specify     |
|     the initial magnetic moment with the MAGMOM tag. Note that a            |
|     default of 1 will be used for all atoms. This ferromagnetic setup       |
|     may break the symmetry of the crystal, in particular it may rule        |
|     out finding an antiferromagnetic solution. Thence, we recommend         |
|     setting the initial magnetic moment manually or verifying carefully     |
|     that this magnetic setup is desired.                                    |
|                                                                             |
 -----------------------------------------------------------------------------

 POTCAR:    PAW_PBE Be_GW 04Mar2008               
   VRHFIN =Be: s2p0                                                                                 
   LEXCH  = PE                                                                                      
   EATOM  =    27.5229 eV,    2.0229 Ry                                                             
                                                                                                    
   TITEL  = PAW_PBE Be_GW 04Mar2008                                                                 
   LULTRA =        F    use ultrasoft PP ?                                                          
   IUNSCR =        1    unscreen: 0-lin 1-nonlin 2-no                                               
   RPACOR =    1.580    partial core radius                                                         
   POMASS =    9.013; ZVAL   =    2.000    mass and valenz                                          
   RCORE  =    1.900    outmost cutoff radius                                                       
   RWIGS  =    1.900; RWIGS  =    1.005    wigner-seitz radius (au A)                               
   ENMAX  =  247.543; ENMIN  =  185.657 eV                                                          
   RCLOC  =    1.409    cutoff for local pot                                                        
   LCOR   =        T    correct aug charges                                                         
   LPAW   =        T    paw PP                                                                      
   EAUG   =  527.985                                                                                
   DEXC   =    0.000                                                                                
   RMAX   =    1.944    core radius for proj-oper                                                   
   RAUG   =    1.300    factor for augmentation sphere                                              
   RDEP   =    2.003    radius for radial grids                                                     
   RDEPT  =    1.802    core radius for aug-charge                                                  
                                                                                                    
   Atomic configuration                                                                             
    4 entries                                                                                       
     n  l   j            E        occ.                                                              
     1  0  0.50      -106.2290   2.0000                                                             
     2  0  0.50        -5.6115   1.9999                                                             
     2  1  0.50        -2.0196   0.0010                                                             
     3  2  1.50        -1.3606   0.0000                                                             
   Description                                                                                      
     l       E           TYP  RCUT    TYP  RCUT                                                     
     0     -5.6114891     23  1.900                                                                 
     0     68.0291300     23  1.900                                                                 
     1     -2.0196155     23  1.900                                                                 
     1     54.4233040     23  1.900                                                                 
     2     54.4233040     23  1.900                                                                 
  local pseudopotential read in
  partial core-charges read in
  partial kinetic energy density read in
  kinetic energy density of atom read in
  atomic valenz-charges read in
  non local Contribution for L=           0  read in
    real space projection operators read in
  non local Contribution for L=           0  read in
    real space projection operators read in
  non local Contribution for L=           1  read in
    real space projection operators read in
  non local Contribution for L=           1  read in
    real space projection operators read in
  non local Contribution for L=           2  read in
    real space projection operators read in
    PAW grid and wavefunctions read in

   number of l-projection  operators is LMAX  =           5
   number of lm-projection operators is LMMAX =          13

 POTCAR:    PAW_PBE H 15Jun2001                   
   VRHFIN =H: ultrasoft test                                                                        
   LEXCH  = PE                                                                                      
   EATOM  =    12.4884 eV,    0.9179 Ry                                                             
                                                                                                    
   TITEL  = PAW_PBE H 15Jun2001                                                                     
   LULTRA =        F    use ultrasoft PP ?                                                          
   IUNSCR =        0    unscreen: 0-lin 1-nonlin 2-no                                               
   RPACOR =    0.000    partial core radius                                                         
   POMASS =    1.000; ZVAL   =    1.000    mass and valenz                                          
   RCORE  =    1.100    outmost cutoff radius                                                       
   RWIGS  =    0.700; RWIGS  =    0.370    wigner-seitz radius (au A)                               
   ENMAX  =  250.000; ENMIN  =  200.000 eV                                                          
   RCLOC  =    0.701    cutoff for local pot                                                        
   LCOR   =        T    correct aug charges                                                         
   LPAW   =        T    paw PP                                                                      
   EAUG   =  400.000                                                                                
   RMAX   =    1.123    core radius for proj-oper                                                   
   RAUG   =    1.200    factor for augmentation sphere                                              
   RDEP   =    1.112    radius for radial grids                                                     
   RDEPT  =    0.926    core radius for aug-charge                                                  
                                                                                                    
   Atomic configuration                                                                             
    2 entries                                                                                       
     n  l   j            E        occ.                                                              
     1  0  0.50        -6.4927   1.0000                                                             
     2  1  0.50        -3.4015   0.0000                                                             
   Description                                                                                      
     l       E           TYP  RCUT    TYP  RCUT                                                     
     0     -6.4927494     23  1.100                                                                 
     0      6.8029130     23  1.100                                                                 
     1     -4.0817478     23  1.100                                                                 
  local pseudopotential read in
  atomic valenz-charges read in
  non local Contribution for L=           0  read in
    real space projection operators read in
  non local Contribution for L=           0  read in
    real space projection operators read in
  non local Contribution for L=           1  read in
    real space projection operators read in
    PAW grid and wavefunctions read in

   number of l-projection  operators is LMAX  =           3
   number of lm-projection operators is LMMAX =           5

  PAW_PBE Be_GW 04Mar2008               :
 energy of atom  1       EATOM=  -27.5229
 kinetic energy error for atom=    0.0006 (will be added to EATOM!!)
  PAW_PBE H 15Jun2001                   :
 energy of atom  2       EATOM=  -12.4884
 kinetic energy error for atom=    0.0868 (will be added to EATOM!!)


 POSCAR: Be H
  positions in direct lattice
  No initial velocities read in
 exchange correlation table for  LEXCH =        8
   RHO(1)=    0.500       N(1)  =     2000
   RHO(2)=  100.500       N(2)  =     4000



--------------------------------------------------------------------------------------------------------


 ion  position               nearest neighbor table
   1  0.000  0.000  0.000-
   2  0.000  0.500  0.500-

  LATTYP: Found a simple tetragonal cell.
 ALAT       =     2.2673244588
 C/A-ratio  =     0.9997166445
  
  Lattice vectors:
  
 A1 = (   1.6032400000,  -1.6032410000,   0.0000000000)
 A2 = (   1.6032400000,   1.6032400000,   0.0000000000)
 A3 = (   0.0000000000,   0.0000000000,   2.2666820000)


Analysis of symmetry for initial positions (statically):
=====================================================================
 Subroutine PRICEL returns:
 Original cell was already a primitive cell.
 

 Routine SETGRP: Setting up the symmetry group for a 
 simple tetragonal supercell.


 Subroutine GETGRP returns: Found 16 space group operations
 (whereof 16 operations were pure point group operations)
 out of a pool of 16 trial point group operations.


The static configuration has the point symmetry D_4h.


Analysis of symmetry for dynamics (positions and initial velocities):
=====================================================================
 Subroutine PRICEL returns:
 Original cell was already a primitive cell.
 

 Routine SETGRP: Setting up the symmetry group for a 
 simple tetragonal supercell.


 Subroutine GETGRP returns: Found 16 space group operations
 (whereof 16 operations were pure point group operations)
 out of a pool of 16 trial point group operations.


The dynamic configuration has the point symmetry D_4h.


Analysis of structural, dynamic, and magnetic symmetry:
=====================================================================
 Subroutine PRICEL returns:
 Original cell was already a primitive cell.
 

 Routine SETGRP: Setting up the symmetry group for a 
 simple tetragonal supercell.


 Subroutine GETGRP returns: Found 16 space group operations
 (whereof 16 operations were pure point group operations)
 out of a pool of 16 trial point group operations.


The overall configuration has the point symmetry D_4h.


 Subroutine INISYM returns: Found 16 space group operations
 (whereof 16 operations are pure point group operations),
 and found     1 'primitive' translations


----------------------------------------------------------------------------------------

                                     Primitive cell                                     

  volume of cell :      11.6525

  direct lattice vectors                    reciprocal lattice vectors
     1.603240000  1.603240000  0.000000000     0.623736933  0.000000000 -0.000000000
    -0.000000000  3.206481000  0.000000000    -0.311868369  0.311868369  0.000000000
     0.000000000  0.000000000  2.266682000     0.000000000 -0.000000000  0.441173486

  length of vectors
     2.267323752  3.206481000  2.266682000     0.623736933  0.441048477  0.441173486

  position of ions in fractional coordinates (direct lattice)
     0.000000000  0.000000000  0.000000000
     0.000000005  0.499999900  0.499999579

  ion indices of the primitive-cell ions
   primitive index   ion index
                 1           1
                 2           2

----------------------------------------------------------------------------------------



 KPOINTS: Gamma-point only                        

Automatic generation of k-mesh.
 Grid dimensions read from file:
 generate k-points for:    1    1    1

 Generating k-lattice:

  Cartesian coordinates                     Fractional coordinates (reciprocal lattice)
     0.623736933  0.000000000 -0.000000000     1.000000000  0.000000000  0.000000000
    -0.311868369  0.311868369  0.000000000    -0.000000000  1.000000000  0.000000000
     0.000000000 -0.000000000  0.441173486     0.000000000  0.000000000  1.000000000

  Length of vectors
     0.623736933  0.441048477  0.441173486

  Shift w.r.t. Gamma in fractional coordinates (k-lattice)
     0.000000000  0.000000000  0.000000000

 
 Subroutine IBZKPT returns following result:
 ===========================================
 
 Found      1 irreducible k-points:
 
 Following reciprocal coordinates:
            Coordinates               Weight
  0.000000  0.000000  0.000000      1.000000
 
 Following cartesian coordinates:
            Coordinates               Weight
  0.000000  0.000000  0.000000      1.000000
 


--------------------------------------------------------------------------------------------------------




 Dimension of arrays:
   k-points           NKPTS =      1   k-points in BZ     NKDIM =      1   number of bands    NBANDS=      6
   number of dos      NEDOS =    301   number of ions     NIONS =      2
   non local maximal  LDIM  =      5   non local SUM 2l+1 LMDIM =     13
   total plane-waves  NPLWV =   1200
   max r-space proj   IRMAX =      1   max aug-charges    IRDMAX=   3696
   dimension x,y,z NGX =    10 NGY =   12 NGZ =   10
   dimension x,y,z NGXF=    20 NGYF=   24 NGZF=   20
   support grid    NGXF=    20 NGYF=   24 NGZF=   20
   ions per type =               1   1
   NGX,Y,Z   is equivalent  to a cutoff of   7.33,  6.22,  7.33 a.u.
   NGXF,Y,Z  is equivalent  to a cutoff of  14.66, 12.44, 14.67 a.u.

 SYSTEM =  unknown system                          
 POSCAR =  Be H                                    

 Startparameter for this run:
   NWRITE =      2    write-flag & timer
   PREC   = normal    normal or accurate (medium, high low for compatibility)
   ISTART =      0    job   : 0-new  1-cont  2-samecut
   ICHARG =      2    charge: 1-file 2-atom 10-const
   ISPIN  =      2    spin polarized calculation?
   LNONCOLLINEAR =      F non collinear calculations
   LSORBIT =      F    spin-orbit coupling
   INIWAV =      1    electr: 0-lowe 1-rand  2-diag
   LASPH  =      F    aspherical Exc in radial PAW
 Electronic Relaxation 1
   ENCUT  =  250.0 eV  18.37 Ry    4.29 a.u.   2.92  4.13  2.92*2*pi/ulx,y,z
   ENINI  =  250.0     initial cutoff
   ENAUG  =  528.0 eV  augmentation charge cutoff
   NELM   =     60;   NELMIN=  2; NELMDL= -5     # of ELM steps 
   EDIFF  = 0.1E-03   stopping-criterion for ELM
   LREAL  =      F    real-space projection
   NLSPLINE    = F    spline interpolate recip. space projectors
   LCOMPAT=      F    compatible to vasp.4.4
   GGA_COMPAT  = T    GGA compatible to vasp.4.4-vasp.4.6
   LMAXPAW     = -100 max onsite density
   LMAXMIX     =    2 max onsite mixed and CHGCAR
   VOSKOWN=      0    Vosko Wilk Nusair interpolation
   ROPT   =    0.00000   0.00000
 Ionic relaxation
   EDIFFG = 0.1E-02   stopping-criterion for IOM
   NSW    =      5    number of steps for IOM
   NBLOCK =      1;   KBLOCK =      5    inner block; outer block 
   IBRION =      2    ionic relax: 0-MD 1-quasi-New 2-CG
   NFREE  =      1    steps in history (QN), initial steepest desc. (CG)
   ISIF   =      2    stress and relaxation
   IWAVPR =     11    prediction:  0-non 1-charg 2-wave 3-comb
   ISYM   =      2    0-nonsym 1-usesym 2-fastsym
   LCORR  =      T    Harris-Foulkes like correction to forces

   POTIM  = 0.5000    time-step for ionic-motion
   TEIN   =    0.0    initial temperature
   TEBEG  =    0.0;   TEEND  =   0.0 temperature during run
   SMASS  =  -3.00    Nose mass-parameter (am)
   estimated Nose-frequenzy (Omega)   =  0.10E-29 period in steps = 0.13E+47 mass=  -0.117E-27a.u.
   SCALEE = 1.0000    scale energy and forces
   NPACO  =    256;   APACO  = 16.0  distance and # of slots for P.C.
   PSTRESS=    0.0 pullay stress

  Mass of Ions in am
   POMASS =   9.01  1.00
  Ionic Valenz
   ZVAL   =   2.00  1.00
  Atomic Wigner-Seitz radii
   RWIGS  =  -1.00 -1.00
  virtual crystal weights 
   VCA    =   1.00  1.00
   NELECT =       3.0000    total number of electrons
   NUPDOWN=      -1.0000    fix difference up-down

 DOS related values:
   EMIN   =  10.00;   EMAX   =-10.00  energy-range for DOS
   EFERMI =   0.00
   ISMEAR =     0;   SIGMA  =   0.20  broadening in eV -4-tet -1-fermi 0-gaus

 Electronic relaxation 2 (details)
   IALGO  =     38    algorithm
   LDIAG  =      T    sub-space diagonalisation (order eigenvalues)
   LSUBROT=      F    optimize rotation matrix (better conditioning)
   TURBO    =      0    0=normal 1=particle mesh
   IRESTART =      0    0=no restart 2=restart with 2 vectors
   NREBOOT  =      0    no. of reboots
   NMIN     =      0    reboot dimension
   EREF     =   0.00    reference energy to select bands
   IMIX   =      4    mixing-type and parameters
     AMIX     =   0.40;   BMIX     =  1.00
     AMIX_MAG =   1.60;   BMIX_MAG =  1.00
     AMIN     =   0.10
     WC   =   100.;   INIMIX=   1;  MIXPRE=   1;  MAXMIX= -45

 Intra band minimization:
   WEIMIN = 0.0010     energy-eigenvalue tresh-hold
   EBREAK =  0.42E-05  absolut break condition
   DEPER  =   0.30     relativ break condition  

   TIME   =   0.40     timestep for ELM

  volume/ion in A,a.u.               =       5.83        39.32
  Fermi-wavevector in a.u.,A,eV,Ry     =   1.041460  1.968074 14.757412  1.084639
  Thomas-Fermi vector in A             =   2.176082

 Write flags
   LWAVE        =      T    write WAVECAR
   LDOWNSAMPLE  =      F    k-point downsampling of WAVECAR
   LCHARG       =      T    write CHGCAR
   LVTOT        =      F    write LOCPOT, total local potential
   LVHAR        =      F    write LOCPOT, Hartree potential only
   LELF         =      F    write electronic localiz. function (ELF)
   LORBIT       =      0    0 simple, 1 ext, 2 COOP (PROOUT), +10 PAW based schemes


 Dipole corrections
   LMONO  =      F    monopole corrections only (constant potential shift)
   LDIPOL =      F    correct potential (dipole corrections)
   IDIPOL =      0    1-x, 2-y, 3-z, 4-all directions 
   EPSILON=  1.0000000 bulk dielectric constant

 Exchange correlation treatment:
   GGA     =    --    GGA type
   LEXCH   =     8    internal setting for exchange type
   VOSKOWN=      0    Vosko Wilk Nusair interpolation
   LHFCALC =     F    Hartree Fock is set to
   LHFONE  =     F    Hartree Fock one center treatment
   AEXX    =    0.0000 exact exchange contribution

 Linear response parameters
   LEPSILON=     F    determine dielectric tensor
   LRPA    =     F    only Hartree local field effects (RPA)
   LNABLA  =     F    use nabla operator in PAW spheres
   LVEL    =     F    velocity operator in full k-point grid
   LINTERFAST=   F  fast interpolation
   KINTER  =     0    interpolate to denser k-point grid
   CSHIFT  =0.1000    complex shift for real part using Kramers Kronig
   OMEGAMAX=  -1.0    maximum frequency
   DEG_THRESHOLD= 0.2000000E-02 threshold for treating states as degnerate
   RTIME   =   -0.100 relaxation time in fs
  (WPLASMAI=    0.000 imaginary part of plasma frequency in eV, 0.658/RTIME)
   DFIELD  = 0.0000000 0.0000000 0.0000000 field for delta impulse in time

 Orbital magnetization related:
   ORBITALMAG=     F  switch on orbital magnetization
   LCHIMAG   =     F  perturbation theory with respect to B field
   DQ        =  0.001000  dq finite difference perturbation B field
   LLRAUG    =     F  two centre corrections for induced B field



--------------------------------------------------------------------------------------------------------


 conjugate gradient relaxation of ions
 charge density and potential will be updated during run
 spin polarized calculation
 Variant of blocked Davidson
 Davidson routine will perform the subspace rotation
 perform sub-space diagonalisation
    after iterative eigenvector-optimisation
 modified Broyden-mixing scheme, WC =      100.0
 initial mixing is a Kerker type mixing with AMIX =  0.4000 and BMIX =      1.0000
 Hartree-type preconditioning will be used
 using additional bands            4
 reciprocal scheme for non local part
 use partial core corrections
 calculate Harris-corrections to forces   (improved forces if not selfconsistent)
 use gradient corrections 
 use of overlap-Matrix (Vanderbilt PP)
 Gauss-broadening in eV      SIGMA  =   0.20


--------------------------------------------------------------------------------------------------------


  energy-cutoff  :      250.00
  volume of cell :       11.65
      direct lattice vectors                 reciprocal lattice vectors
     1.603240000  1.603240000  0.000000000     0.623736933  0.000000000 -0.000000000
    -0.000000000  3.206481000  0.000000000    -0.311868369  0.311868369  0.000000000
     0.000000000  0.000000000  2.266682000     0.000000000 -0.000000000  0.441173486

  length of vectors
     2.267323752  3.206481000  2.266682000     0.623736933  0.441048477  0.441173486



 k-points in units of 2pi/SCALE and weight: Gamma-point only                        
   0.00000000  0.00000000  0.00000000       1.000

 k-points in reciprocal lattice and weights: Gamma-point only                        
   0.00000000  0.00000000  0.00000000       1.000

 position of ions in fractional coordinates (direct lattice) 
   0.00000000  0.00000000  0.00000000
   0.00000000  0.49999990  0.49999958

 position of ions in cartesian coordinates  (Angst):
   0.00000000  0.00000000  0.00000000
   0.00000001  1.60324019  1.13334005



--------------------------------------------------------------------------------------------------------


 use serial FFT for orbitals x direction half grid
 k-point   1 :   0.0000 0.0000 0.0000  plane waves:      47

 maximum and minimum number of plane-waves per node :        47       47

 maximum number of plane-waves:        47
 maximum index in each direction: 
   IXMAX=    2   IYMAX=    4   IZMAX=    2
   IXMIN=    0   IYMIN=   -1   IZMIN=   -2


 serial   3D FFT for wavefunctions
 parallel 3D FFT for charge:
    minimum data exchange during FFTs selected (reduces bandwidth)


 total amount of memory used by VASP MPI-rank0    31322. kBytes
=======================================================================

   base      :      30000. kBytes
   nonl-proj :         11. kBytes
   fftplans  :        356. kBytes
   grid      :        929. kBytes
   one-center:         16. kBytes
   wavefun   :         10. kBytes

     INWAV:  cpu time    0.0000: real time    0.0000
 Broyden mixing: mesh for mixing (old mesh)
   NGX =  5   NGY =  9   NGZ =  5
  (NGX  = 20   NGY  = 24   NGZ  = 20)
  gives a total of    225 points

 initial charge density was supplied:
 charge density of overlapping atoms calculated
 number of electron       3.0000000 magnetization       2.0000000
 keeping initial charge density in first step


--------------------------------------------------------------------------------------------------------


 Maximum index for augmentation-charges         3395 (set IRDMAX)


--------------------------------------------------------------------------------------------------------


 First call to EWALD:  gamma=   0.782
 Maximum number of real-space cells 4x 3x 3
 Maximum number of reciprocal cells 3x 4x 3

    FEWALD:  cpu time    0.0008: real time    0.0008


--------------------------------------- Iteration      1(   1)  ---------------------------------------


    POTLOK:  cpu time    0.0213: real time    0.0227
    SETDIJ:  cpu time    0.0168: real time    0.0202
     EDDAV:  cpu time    0.0065: real time    0.0100
       DOS:  cpu time    0.0001: real time    0.0001
    --------------------------------------------
      LOOP:  cpu time    0.0447: real time    0.0530

 eigenvalue-minimisations  :    24
 total energy-change (2. order) :-0.2124781E+01  (-0.9701717E+02)
 number of electron       3.0000000 magnetization       2.0000000
 augmentation part        3.0000000 magnetization       2.0000000

 Free energy of the ion-electron system (eV)
  ---------------------------------------------------
  alpha Z        PSCENC =         5.84199100
  Ewald energy   TEWEN  =       -55.24064177
  -Hartree energ DENC   =        -0.74337887
  -exchange      EXHF   =         0.00000000
  -V(xc)+E(xc)   XCENC  =         7.08887525
  PAW double counting   =        16.98111632      -16.31966698
  entropy T*S    EENTRO =        -0.00000000
  eigenvalues    EBANDS =         0.34301301
  atomic energy  EATOM  =        39.92391144
  Solvation  Ediel_sol  =         0.00000000
  ---------------------------------------------------
  free energy    TOTEN  =        -2.12478061 eV

  energy without entropy =       -2.12478061  energy(sigma->0) =       -2.12478061


--------------------------------------------------------------------------------------------------------




--------------------------------------- Iteration      1(   2)  ---------------------------------------


     EDDAV:  cpu time    0.0087: real time    0.0093
       DOS:  cpu time    0.0001: real time    0.0001
    --------------------------------------------
      LOOP:  cpu time    0.0088: real time    0.0094

 eigenvalue-minimisations  :    36
 total energy-change (2. order) :-0.1201006E+01  (-0.1097080E+01)
 number of electron       3.0000000 magnetization       2.0000000
 augmentation part        3.0000000 magnetization       2.0000000

 Free energy of the ion-electron system (eV)
  ---------------------------------------------------
  alpha Z        PSCENC =         5.84199100
  Ewald energy   TEWEN  =       -55.24064177
  -Hartree energ DENC   =        -0.74337887
  -exchange      EXHF   =         0.00000000
  -V(xc)+E(xc)   XCENC  =         7.08887525
  PAW double counting   =        16.98111632      -16.31966698
  entropy T*S    EENTRO =        -0.11260211
  eigenvalues    EBANDS =        -0.74539100
  atomic energy  EATOM  =        39.92391144
  Solvation  Ediel_sol  =         0.00000000
  ---------------------------------------------------
  free energy    TOTEN  =        -3.32578672 eV

  energy without entropy =       -3.21318461  energy(sigma->0) =       -3.26948567


--------------------------------------------------------------------------------------------------------




--------------------------------------- Iteration      1(   3)  ---------------------------------------


     EDDAV:  cpu time    0.0061: real time    0.0061
       DOS:  cpu time    0.0001: real time    0.0001
    --------------------------------------------
      LOOP:  cpu time    0.0062: real time    0.0062

 eigenvalue-minimisations  :    24
 total energy-change (2. order) :-0.6412400E-01  (-0.2755324E-01)
 number of electron       3.0000000 magnetization       2.0000000
 augmentation part        3.0000000 magnetization       2.0000000

 Free energy of the ion-electron system (eV)
  ---------------------------------------------------
  alpha Z        PSCENC =         5.84199100
  Ewald energy   TEWEN  =       -55.24064177
  -Hartree energ DENC   =        -0.74337887
  -exchange      EXHF   =         0.00000000
  -V(xc)+E(xc)   XCENC  =         7.08887525
  PAW double counting   =        16.98111632      -16.31966698
  entropy T*S    EENTRO =        -0.15404845
  eigenvalues    EBANDS =        -0.76806866
  atomic energy  EATOM  =        39.92391144
  Solvation  Ediel_sol  =         0.00000000
  ---------------------------------------------------
  free energy    TOTEN  =        -3.38991072 eV

  energy without entropy =       -3.23586228  energy(sigma->0) =       -3.31288650


--------------------------------------------------------------------------------------------------------




--------------------------------------- Iteration      1(   4)  ---------------------------------------


     EDDAV:  cpu time    0.0061: real time    0.0469
       DOS:  cpu time    0.0001: real time    0.0001
    --------------------------------------------
      LOOP:  cpu time    0.0062: real time    0.0470

 eigenvalue-minimisations  :    24
 total energy-change (2. order) :-0.8336671E-03  (-0.8291724E-03)
 number of electron       3.0000000 magnetization       2.0000000
 augmentation part        3.0000000 magnetization       2.0000000

 Free energy of the ion-electron system (eV)
  ---------------------------------------------------
  alpha Z        PSCENC =         5.84199100
  Ewald energy   TEWEN  =       -55.24064177
  -Hartree energ DENC   =        -0.74337887
  -exchange      EXHF   =         0.00000000
  -V(xc)+E(xc)   XCENC  =         7.08887525
  PAW double counting   =        16.98111632      -16.31966698
  entropy T*S    EENTRO =        -0.15410574
  eigenvalues    EBANDS =        -0.76884503
  atomic energy  EATOM  =        39.92391144
  Solvation  Ediel_sol  =         0.00000000
  ---------------------------------------------------
  free energy    TOTEN  =        -3.39074439 eV

  energy without entropy =       -3.23663865  energy(sigma->0) =       -3.31369152


--------------------------------------------------------------------------------------------------------




--------------------------------------- Iteration      1(   5)  ---------------------------------------


     EDDAV:  cpu time    0.0050: real time    0.0050
       DOS:  cpu time    0.0001: real time    0.0001
    CHARGE:  cpu time    0.0026: real time    0.0026
    MIXING:  cpu time    0.0004: real time    0.0012
    --------------------------------------------
      LOOP:  cpu time    0.0081: real time    0.0090

 eigenvalue-minimisations  :    18
 total energy-change (2. order) :-0.1998697E-04  (-0.1998510E-04)
 number of electron       2.9999998 magnetization       0.5843423
 augmentation part       -0.0439750 magnetization      -0.3772759

 Broyden mixing:
  rms(total) = 0.55790E+00    rms(broyden)= 0.55488E+00
  rms(prec ) = 0.10004E+01
  weight for this iteration     100.00

 Free energy of the ion-electron system (eV)
  ---------------------------------------------------
  alpha Z        PSCENC =         5.84199100
  Ewald energy   TEWEN  =       -55.24064177
  -Hartree energ DENC   =        -0.74337887
  -exchange      EXHF   =         0.00000000
  -V(xc)+E(xc)   XCENC  =         7.08887525
  PAW double counting   =        16.98111632      -16.31966698
  entropy T*S    EENTRO =        -0.15410688
  eigenvalues    EBANDS =        -0.76886388
  atomic energy  EATOM  =        39.92391144
  Solvation  Ediel_sol  =         0.00000000
  ---------------------------------------------------
  free energy    TOTEN  =        -3.39076438 eV

  energy without entropy =       -3.23665750  energy(sigma->0) =       -3.31371094


--------------------------------------------------------------------------------------------------------




--------------------------------------- Iteration      1(   6)  ---------------------------------------


    POTLOK:  cpu time    0.0178: real time    0.0180
    SETDIJ:  cpu time    0.0167: real time    0.0167
     EDDAV:  cpu time    0.0085: real time    0.0085
       DOS:  cpu time    0.0001: real time    0.0001
    CHARGE:  cpu time    0.0024: real time    0.0024
    MIXING:  cpu time    0.0005: real time    0.0028
    --------------------------------------------
      LOOP:  cpu time    0.0460: real time    0.0485

 eigenvalue-minimisations  :    36
 total energy-change (2. order) :-0.1151205E+01  (-0.5365660E+00)
 number of electron       2.9999996 magnetization       1.2116632
 augmentation part       -0.0307824 magnetization       0.2319958

 Broyden mixing:
  rms(total) = 0.20322E+00    rms(broyden)= 0.20234E+00
  rms(prec ) = 0.38281E+00
  weight for this iteration     100.00

 eigenvalues of (default mixing * dielectric matrix)
  average eigenvalue GAMMA=   0.7868
  0.7868

 Free energy of the ion-electron system (eV)
  ---------------------------------------------------
  alpha Z        PSCENC =         5.84199100
  Ewald energy   TEWEN  =       -55.24064177
  -Hartree energ DENC   =        -0.44326050
  -exchange      EXHF   =         0.00000000
  -V(xc)+E(xc)   XCENC  =         6.53068284
  PAW double counting   =        33.39178599      -32.75689734
  entropy T*S    EENTRO =        -0.14975715
  eigenvalues    EBANDS =        -1.63978342
  atomic energy  EATOM  =        39.92391144
  Solvation  Ediel_sol  =         0.00000000
  ---------------------------------------------------
  free energy    TOTEN  =        -4.54196892 eV

  energy without entropy =       -4.39221177  energy(sigma->0) =       -4.46709034


--------------------------------------------------------------------------------------------------------




--------------------------------------- Iteration      1(   7)  ---------------------------------------


    POTLOK:  cpu time    0.0177: real time    0.1289
    SETDIJ:  cpu time    0.0166: real time    0.0167
     EDDAV:  cpu time    0.0060: real time    0.0060
       DOS:  cpu time    0.0001: real time    0.0001
    CHARGE:  cpu time    0.0024: real time    0.0024
    MIXING:  cpu time    0.0004: real time    0.0004
    --------------------------------------------
      LOOP:  cpu time    0.0432: real time    0.1545

 eigenvalue-minimisations  :    24
 total energy-change (2. order) :-0.2392747E+00  (-0.2508905E-01)
 number of electron       2.9999996 magnetization       1.0250652
 augmentation part       -0.0301316 magnetization       0.0466374

 Broyden mixing:
  rms(total) = 0.14985E+00    rms(broyden)= 0.14888E+00
  rms(prec ) = 0.30340E+00
  weight for this iteration     100.00

 eigenvalues of (default mixing * dielectric matrix)
  average eigenvalue GAMMA=   0.8098
  0.9496  0.6699

 Free energy of the ion-electron system (eV)
  ---------------------------------------------------
  alpha Z        PSCENC =         5.84199100
  Ewald energy   TEWEN  =       -55.24064177
  -Hartree energ DENC   =        -0.40441104
  -exchange      EXHF   =         0.00000000
  -V(xc)+E(xc)   XCENC  =         6.62235713
  PAW double counting   =        48.75962397      -48.18446494
  entropy T*S    EENTRO =        -0.11713401
  eigenvalues    EBANDS =        -1.98247535
  atomic energy  EATOM  =        39.92391144
  Solvation  Ediel_sol  =         0.00000000
  ---------------------------------------------------
  free energy    TOTEN  =        -4.78124358 eV

  energy without entropy =       -4.66410957  energy(sigma->0) =       -4.72267658


--------------------------------------------------------------------------------------------------------




--------------------------------------- Iteration      1(   8)  ---------------------------------------


    POTLOK:  cpu time    0.0177: real time    0.0178
    SETDIJ:  cpu time    0.0165: real time    0.0165
     EDDAV:  cpu time    0.0109: real time    0.0110
       DOS:  cpu time    0.0001: real time    0.0001
    CHARGE:  cpu time    0.0024: real time    0.0024
    MIXING:  cpu time    0.0005: real time    0.0023
    --------------------------------------------
      LOOP:  cpu time    0.0481: real time    0.0502

 eigenvalue-minimisations  :    48
 total energy-change (2. order) :-0.3220027E-01  (-0.5173089E-02)
 number of electron       2.9999996 magnetization       1.0111355
 augmentation part       -0.0299794 magnetization       0.0329919

 Broyden mixing:
  rms(total) = 0.76427E-01    rms(broyden)= 0.76299E-01
  rms(prec ) = 0.19373E+00
  weight for this iteration     100.00

 eigenvalues of (default mixing * dielectric matrix)
  average eigenvalue GAMMA=   0.9893
  1.3891  0.9060  0.6728

 Free energy of the ion-electron system (eV)
  ---------------------------------------------------
  alpha Z        PSCENC =         5.84199100
  Ewald energy   TEWEN  =       -55.24064177
  -Hartree energ DENC   =        -0.40287917
  -exchange      EXHF   =         0.00000000
  -V(xc)+E(xc)   XCENC  =         6.58232022
  PAW double counting   =        56.58936302      -56.05034309
  entropy T*S    EENTRO =        -0.11283729
  eigenvalues    EBANDS =        -1.94432823
  atomic energy  EATOM  =        39.92391144
  Solvation  Ediel_sol  =         0.00000000
  ---------------------------------------------------
  free energy    TOTEN  =        -4.81344386 eV

  energy without entropy =       -4.70060657  energy(sigma->0) =       -4.75702521


--------------------------------------------------------------------------------------------------------




--------------------------------------- Iteration      1(   9)  ---------------------------------------


    POTLOK:  cpu time    0.0183: real time    0.0399
    SETDIJ:  cpu time    0.0169: real time    0.0170
     EDDAV:  cpu time    0.0072: real time    0.0073
       DOS:  cpu time    0.0001: real time    0.0001
    CHARGE:  cpu time    0.0025: real time    0.0025
    MIXING:  cpu time    0.0004: real time    0.0004
    --------------------------------------------
      LOOP:  cpu time    0.0455: real time    0.0672

 eigenvalue-minimisations  :    30
 total energy-change (2. order) :-0.4367359E-01  (-0.8793600E-02)
 number of electron       2.9999996 magnetization       1.0111592
 augmentation part       -0.0299183 magnetization       0.0333916

 Broyden mixing:
  rms(total) = 0.38716E-01    rms(broyden)= 0.38707E-01
  rms(prec ) = 0.49805E-01
  weight for this iteration     100.00

 eigenvalues of (default mixing * dielectric matrix)
  average eigenvalue GAMMA=   1.2508
  2.2878  1.2319  0.8197  0.6639

 Free energy of the ion-electron system (eV)
  ---------------------------------------------------
  alpha Z        PSCENC =         5.84199100
  Ewald energy   TEWEN  =       -55.24064177
  -Hartree energ DENC   =        -0.43074434
  -exchange      EXHF   =         0.00000000
  -V(xc)+E(xc)   XCENC  =         6.55213005
  PAW double counting   =        68.69317832      -68.18302104
  entropy T*S    EENTRO =        -0.11294212
  eigenvalues    EBANDS =        -1.90097898
  atomic energy  EATOM  =        39.92391144
  Solvation  Ediel_sol  =         0.00000000
  ---------------------------------------------------
  free energy    TOTEN  =        -4.85711745 eV

  energy without entropy =       -4.74417533  energy(sigma->0) =       -4.80064639


--------------------------------------------------------------------------------------------------------




--------------------------------------- Iteration      1(  10)  ---------------------------------------


    POTLOK:  cpu time    0.0184: real time    0.0185
    SETDIJ:  cpu time    0.0165: real time    0.0166
     EDDAV:  cpu time    0.0060: real time    0.0060
       DOS:  cpu time    0.0001: real time    0.0001
    CHARGE:  cpu time    0.0025: real time    0.0025
    MIXING:  cpu time    0.0004: real time    0.0004
    --------------------------------------------
      LOOP:  cpu time    0.0439: real time    0.0441

 eigenvalue-minimisations  :    24
 total energy-change (2. order) :-0.8070389E-02  (-0.6265863E-03)
 number of electron       2.9999996 magnetization       1.0007739
 augmentation part       -0.0299635 magnetization       0.0232805

 Broyden mixing:
  rms(total) = 0.86643E-02    rms(broyden)= 0.86612E-02
  rms(prec ) = 0.13759E-01
  weight for this iteration     100.00

 eigenvalues of (default mixing * dielectric matrix)
  average eigenvalue GAMMA=   1.2346
  2.7358  1.1864  0.9116  0.7001  0.6389

 Free energy of the ion-electron system (eV)
  ---------------------------------------------------
  alpha Z        PSCENC =         5.84199100
  Ewald energy   TEWEN  =       -55.24064177
  -Hartree energ DENC   =        -0.44227191
  -exchange      EXHF   =         0.00000000
  -V(xc)+E(xc)   XCENC  =         6.55780803
  PAW double counting   =        70.13099423      -69.62504394
  entropy T*S    EENTRO =        -0.11283936
  eigenvalues    EBANDS =        -1.89909556
  atomic energy  EATOM  =       free energy  

--------------------------------------- Iteration      1(   1)  ---------------------------------------


    POTLOK:  cpu time    0.0216: real time    0.0224
    SETDIJ:  cpu time    0.0170: real time    0.0214
     EDDAV:  cpu time    0.0065: real time    0.0196
       DOS:  cpu time    0.0001: real time    0.0001
    --------------------------------------------
      LOOP:  cpu time    0.0452: real time    0.0634

 eigenvalue-minimisations  :    24
 total energy-change (2. order) :-0.2124781E+01  (-0.9701717E+02)
 number of electron       3.0000000 magnetization       2.0000000
 augmentation part        3.0000000 magnetization       2.0000000

 Free energy of the ion-electron system (eV)
  ---------------------------------------------------
  alpha Z        PSCENC =         5.84199100
  Ewald energy   TEWEN  =       -55.24064177
  -Hartree energ DENC   =        -0.74337887
  -exchange      EXHF   =         0.00000000
  -V(xc)+E(xc)   XCENC  =         7.08887525
  PAW double counting   =        16.98111632      -16.31966698
  entropy T*S    EENTRO =        -0.00000000
  eigenvalues    EBANDS =         0.34301301
  atomic energy  EATOM  =        39.92391144
  Solvation  Ediel_sol  =         0.00000000
  ---------------------------------------------------
  free energy    TOTEN  =        -2.12478061 eV

  energy without entropy =       -2.12478061  energy(sigma->0) =       -2.12478061


--------------------------------------------------------------------------------------------------------




--------------------------------------- Iteration      1(   2)  ---------------------------------------


     EDDAV:  cpu time    0.0090: real time    0.0242
       DOS:  cpu time    0.0001: real time    0.0001
    --------------------------------------------
      LOOP:  cpu time    0.0091: real time    0.0243

 eigenvalue-minimisations  :    36
 total energy-change (2. order) :-0.1201006E+01  (-0.1097080E+01)
 number of electron       3.0000000 magnetization       2.0000000
 augmentation part        3.0000000 magnetization       2.0000000

 Free energy of the ion-electron system (eV)
  ---------------------------------------------------
  alpha Z        PSCENC =         5.84199100
  Ewald energy   TEWEN  =       -55.24064177
  -Hartree energ DENC   =        -0.74337887
  -exchange      EXHF   =         0.00000000
  -V(xc)+E(xc)   XCENC  =         7.08887525
  PAW double counting   =        16.98111632      -16.31966698
  entropy T*S    EENTRO =        -0.11260211
  eigenvalues    EBANDS =        -0.74539100
  atomic energy  EATOM  =        39.92391144
  Solvation  Ediel_sol  =         0.00000000
  ---------------------------------------------------
  free energy    TOTEN  =        -3.32578672 eV

  energy without entropy =       -3.21318461  energy(sigma->0) =       -3.26948567


--------------------------------------------------------------------------------------------------------




--------------------------------------- Iteration      1(   3)  ---------------------------------------


     EDDAV:  cpu time    0.0062: real time    0.0062
       DOS:  cpu time    0.0001: real time    0.0002
    --------------------------------------------
      LOOP:  cpu time    0.0063: real time    0.0064

 eigenvalue-minimisations  :    24
 total energy-change (2. order) :-0.6412400E-01  (-0.2755324E-01)
 number of electron       3.0000000 magnetization       2.0000000
 augmentation part        3.0000000 magnetization       2.0000000

 Free energy of the ion-electron system (eV)
  ---------------------------------------------------
  alpha Z        PSCENC =         5.84199100
  Ewald energy   TEWEN  =       -55.24064177
  -Hartree energ DENC   =        -0.74337887
  -exchange      EXHF   =         0.00000000
  -V(xc)+E(xc)   XCENC  =         7.08887525
  PAW double counting   =        16.98111632      -16.31966698
  entropy T*S    EENTRO =        -0.15404845
  eigenvalues    EBANDS =        -0.76806866
  atomic energy  EATOM  =        39.92391144
  Solvation  Ediel_sol  =         0.00000000
  ---------------------------------------------------
  free energy    TOTEN  =        -3.38991072 eV

  energy without entropy =       -3.23586228  energy(sigma->0) =       -3.31288650


--------------------------------------------------------------------------------------------------------




--------------------------------------- Iteration      1(   4)  ---------------------------------------


     EDDAV:  cpu time    0.0062: real time    0.0065
       DOS:  cpu time    0.0001: real time    0.0002
    --------------------------------------------
      LOOP:  cpu time    0.0063: real time    0.0067

 eigenvalue-minimisations  :    24
 total energy-change (2. order) :-0.8336671E-03  (-0.8291724E-03)
 number of electron       3.0000000 magnetization       2.0000000
 augmentation part        3.0000000 magnetization       2.0000000

 Free energy of the ion-electron system (eV)
  ---------------------------------------------------
  alpha Z        PSCENC =         5.84199100
  Ewald energy   TEWEN  =       -55.24064177
  -Hartree energ DENC   =        -0.74337887
  -exchange      EXHF   =         0.00000000
  -V(xc)+E(xc)   XCENC  =         7.08887525
  PAW double counting   =        16.98111632      -16.31966698
  entropy T*S    EENTRO =        -0.15410574
  eigenvalues    EBANDS =        -0.76884503
  atomic energy  EATOM  =        39.92391144
  Solvation  Ediel_sol  =         0.00000000
  ---------------------------------------------------
  free energy    TOTEN  =        -3.39074439 eV

  energy without entropy =       -3.23663865  energy(sigma->0) =       -3.31369152


--------------------------------------------------------------------------------------------------------




--------------------------------------- Iteration      1(   5)  ---------------------------------------


     EDDAV:  cpu time    0.0051: real time    0.0052
       DOS:  cpu time    0.0001: real time    0.0002
    CHARGE:  cpu time    0.0027: real time    0.0028
    MIXING:  cpu time    0.0004: real time    0.0003
    --------------------------------------------
      LOOP:  cpu time    0.0084: real time    0.0085

 eigenvalue-minimisations  :    18
 total energy-change (2. order) :-0.1998697E-04  (-0.1998510E-04)
 number of electron       2.9999998 magnetization       0.5843423
 augmentation part       -0.0439750 magnetization      -0.3772759

 Broyden mixing:
  rms(total) = 0.55790E+00    rms(broyden)= 0.55488E+00
  rms(prec ) = 0.10004E+01
  weight for this iteration     100.00

 Free energy of the ion-electron system (eV)
  ---------------------------------------------------
  alpha Z        PSCENC =         5.84199100
  Ewald energy   TEWEN  =       -55.24064177
  -Hartree energ DENC   =        -0.74337887
  -exchange      EXHF   =         0.00000000
  -V(xc)+E(xc)   XCENC  =         7.08887525
  PAW double counting   =        16.98111632      -16.31966698
  entropy T*S    EENTRO =        -0.15410688
  eigenvalues    EBANDS =        -0.76886388
  atomic energy  EATOM  =        39.92391144
  Solvation  Ediel_sol  =         0.00000000
  ---------------------------------------------------
  free energy    TOTEN  =        -3.39076438 eV

  energy without entropy =       -3.23665750  energy(sigma->0) =       -3.31371094


--------------------------------------------------------------------------------------------------------




--------------------------------------- Iteration      1(   6)  ---------------------------------------


    POTLOK:  cpu time    0.0189: real time    0.0199
    SETDIJ:  cpu time    0.0169: real time    0.0170
     EDDAV:  cpu time    0.0085: real time    0.0086
       DOS:  cpu time    0.0001: real time    0.0001
    CHARGE:  cpu time    0.0026: real time    0.0026
    MIXING:  cpu time    0.0004: real time    0.0004
    --------------------------------------------
      LOOP:  cpu time    0.0474: real time    0.0485

 eigenvalue-minimisations  :    36
 total energy-change (2. order) :-0.1151205E+01  (-0.5365660E+00)
 number of electron       2.9999996 magnetization       1.2116632
 augmentation part       -0.0307824 magnetization       0.2319958

 Broyden mixing:
  rms(total) = 0.20322E+00    rms(broyden)= 0.2  -Hartre  rms(prec ) = 0.38281E+00
  weight for this iteration     100.00

 eigenvalues of (default mixing * dielectric matrix)
  average eigenvalue GAMMA=   0.7868
  0.7868

 Free energy of the ion-electron system (eV)
  ---------------------------------------------------
  alpha Z        PSCENC =         5.84199100
  Ewald energy   TEWEN  =       -55.24064177
  -Hartree energ DENC   =        -0.44326050
  -exchange      EXHF   =         0.00000000
  -V(xc)+E(xc)   XCENC  =         6.53068284
  PAW double counting   =        33.39178599      -32.75689734
  entropy T*S    EENTRO =        -0.14975715
  eigenvalues    EBANDS =        -1.63978342
  atomic energy  EATOM  =        39.92391144
  Solvation  Ediel_sol  =         0.00000000
  ---------------------------------------------------
  free energy    TOTEN  =        -4.54196892 eV

  energy without entropy =       -4.39221177  energy(sigma->0) =       -4.46709034


--------------------------------------------------------------------------------------------------------




--------------------------------------- Iteration      1(   7)  ---------------------------------------


    POTLOK:  cpu time    0.0187: real time    0.0188
    SETDIJ:  cpu time    0.0169: real time    0.0169
     EDDAV:  cpu time    0.0060: real time    0.0060
       DOS:  cpu time    0.0001: real time    0.0002
    CHARGE:  cpu time    0.0025: real time    0.0025
    MIXING:  cpu time    0.0004: real time    0.0004
    --------------------------------------------
      LOOP:  cpu time    0.0446: real time    0.0449

 eigenvalue-minimisations  :    24
 total energy-change (2. order) :-0.2392747E+00  (-0.2508905E-01)
 number of electron       2.9999996 magnetization       1.0250652
 augmentation part       -0.0301316 magnetization       0.0466374

 Broyden mixing:
  rms(total) = 0.14985E+00    rms(broyden)= 0.14888E+00
  rms(prec ) = 0.30340E+00
  weight for this iteration     100.00

 eigenvalues of (default mixing * dielectric matrix)
  average eigenvalue GAMMA=   0.8098
  0.9496  0.6699

 Free energy of the ion-electron system (eV)
  ---------------------------------------------------
  alpha Z        PSCENC =         5.84199100
  Ewald energy   TEWEN  =       -55.24064177
  -Hartree energ DENC   =        -0.40441104
  -exchange      EXHF   =         0.00000000
  -V(xc)+E(xc)   XCENC  =         6.62235713
  PAW double counting   =        48.75962397      -48.18446494
  entropy T*S    EENTRO =        -0.11713401
  eigenvalues    EBANDS =        -1.98247535
  atomic energy  EATOM  =        39.92391144
  Solvation  Ediel_sol  =         0.00000000
  ---------------------------------------------------
  free energy    TOTEN  =        -4.78124358 eV

  energy without entropy =       -4.66410957  energy(sigma->0) =       -4.72267658


--------------------------------------------------------------------------------------------------------




--------------------------------------- Iteration      1(   8)  ---------------------------------------


    POTLOK:  cpu time    0.0189: real time    0.0191
    SETDIJ:  cpu time    0.0169: real time    0.0169
     EDDAV:  cpu time    0.0111: real time    0.0112
       DOS:  cpu time    0.0001: real time    0.0001
    CHARGE:  cpu time    0.0025: real time    0.0025
    MIXING:  cpu time    0.0004: real time    0.0004
    --------------------------------------------
      LOOP:  cpu time    0.0499: real time    0.0502

 eigenvalue-minimisations  :    48
 total energy-change (2. order) :-0.3220027E-01  (-0.5173089E-02)
 number of electron       2.9999996 magnetization       1.0111355
 augmentation part       -0.0299794 magnetization       0.0329919

 Broyden mixing:
  rms(total) = 0.76427E-01    rms(broyden)= 0.76299E-01
  rms(prec ) = 0.19373E+00
  weight for this iteration     100.00

 eigenvalues of (default mixing * dielectric matrix)
  average eigenvalue GAMMA=   0.9893
  1.3891  0.9060  0.6728

 Free energy of the ion-electron system (eV)
  ---------------------------------------------------
  alpha Z        PSCENC =         5.84199100
  Ewald energy   TEWEN  =       -55.24064177
  -Hartree energ DENC   =        -0.40287917
  -exchange       -----------------------------------------------------------------------------------------------
   -.763E-09 0.295E-07 0.900E-07   0.830E-07 -.323E-05 -.988E-05   0.103E-21 0.125E-21 -.195E-22   -.228E-10 0.896E-09 0.266E-08
   -.157E-06 0.610E-05 0.207E-04   -.830E-07 0.323E-05 0.988E-05   -.678E-23 -.962E-23 0.128E-23   0.133E-09 -.441E-08 -.117E-07
 -----------------------------------------------------------------------------------------------
   -.157E-06 0.613E-05 0.208E-04   -.114E-15 0.374E-16 -.439E-16   0.961E-22 0.115E-21 -.182E-22   0.110E-09 -.351E-08 -.901E-08


 POSITION                                       TOTAL-FORCE (eV/Angst)
 -----------------------------------------------------------------------------------
      0.00000      0.00000      0.00000        -0.000000      0.000000     -0.000000
      0.00000      1.60324      1.13334         0.000000     -0.000000      0.000000
 -----------------------------------------------------------------------------------
    total drift:                               -0.000000      0.000006      0.000021


--------------------------------------------------------------------------------------------------------



  FREE ENERGIE OF THE ION-ELECTRON SYSTEM (eV)
  ---------------------------------------------------
  free  energy   TOTEN  =        -4.86548220 eV

  energy  without entropy=       -4.75264348  energy(sigma->0) =       -4.80906284



--------------------------------------------------------------------------------------------------------


    POTLOK:  cpu time    0.0360: real time    0.0656


--------------------------------------------------------------------------------------------------------




--------------------------------------------------------------------------------------------------------


  
 reached required accuracy - stopping structural energy minimisation
 writing wavefunctions
     LOOP+:  cpu time    0.5211: real time    1.7824
6.55213005
  PAW double counting   =        68.69317832      -68.18302104
  entropy T*S    EENTRO =        -0.11294212
  eigenvalues    EBANDS =        -1.90097898
  atomic energy  EATOM  =        39.92391144
  Solvation  Ediel_sol  =         0.00000000
  ---------------------------------------------------
  free energy    TOTEN  =        -4.85711745 eV

  energy without entropy =       -4.74417533  energy(sigma->0) =       -4.80064639


--------------------------------------------------------------------------------------------------------




--------------------------------------- Iteration      1(  10)  ---------------------------------------


    POTLOK:  cpu time    0.0183: real time    0.0184
    SETDIJ:  cpu time    0.0166: real time    0.0166
     EDDAV:  cpu time    0.0060: real time    0.0060
       DOS:  cpu time    0.0001: real time    0.0002
    CHARGE:  cpu time    0.0025: real time    0.0025
    MIXING:  cpu time    0.0004: real time    0.0004
    --------------------------------------------
      LOOP:  cpu time    0.0439: real time    0.0441

 eigenvalue-minimisations  :    24
 total energy-change (2. order) :-0.8070389E-02  (-0.6265863E-03)
 number of electron       2.9999996 magnetization       1.0007739
 augmentation part       -0.0299635 magnetization       0.0232805

 Broyden mixing:
  rms(total) = 0.86643E-02    rms(broyden)= 0.86612E-02
  rms(prec ) = 0.13759E-01
  weight for this iteration     100.00

 eigenvalues of (default mixing * dielectric matrix)
  average eigenvalue GAMMA=   1.2346
  2.7358  1.1864  0.9116  0.7001  0.6389

 Free energy of the ion-electron system (eV)
  ---------------------------------------------------
  alpha Z        PSCENC =         5.84199100
  Ewald energy   TEWEN  =       -55.24064177
  -Hartree energ DENC   =        -0.44227191
  -exchange      EXHF   =         0.00000000
  -V(xc)+E(xc)   XCENC  =         6.55780803
  PAW double counting   =        70.13099423      -69.62504394
  entropy T*S    EENTRO =        -0.11283936
  eigenvalues    EBANDS =        -1.89909556
  atomic energy  EATOM  =        39.92391144
  Solvation  Ediel_sol  =         0.00000000
  ---------------------------------------------------
  free energy    TOTEN  =        -4.86518784 eV

  energy without entropy =       -4.75234847  energy(sigma->0) =       -4.80876815


--------------------------------------------------------------------------------------------------------




--------------------------------------- Iteration      1(  11)  ---------------------------------------


    POTLOK:  cpu time    0.0186: real time    0.0187
    SETDIJ:  cpu time    0.0169: real time    0.0169
     EDDAV:  cpu time    0.0085: real time    0.0086
       DOS:  cpu time    0.0001: real time    0.0002
    CHARGE:  cpu time    0.0025: real time    0.0025
    MIXING:  cpu time    0.0005: real time    0.0005
    --------------------------------------------
      LOOP:  cpu time    0.0471: real time    0.0473

 eigenvalue-minimisations  :    36
 total energy-change (2. order) :-0.2683066E-03  (-0.2515944E-04)
 number of electron       2.9999996 magnetization       0.9999156
 augmentation part       -0.0299935 magnetization       0.0223935

 Broyden mixing:
  rms(total) = 0.29916E-02    rms(broyden)= 0.29883E-02
  rms(prec ) = 0.72773E-02
  weight for this iteration     100.00

 eigenvalues of (default mixing * dielectric matrix)
  average eigenvalue GAMMA=   1.2204
  2.6510  1.4892  0.9181  0.9181  0.7209  0.6251

 Free energy of the ion-electron system (eV)
  ---------------------------------------------------
  alpha Z        PSCENC =         5.84199100
  Ewald energy   TEWEN  =       -55.24064177
  -Hartree energ DENC   =        -0.44421384
  -exchange      EXHF   =         0.00000000
  -V(xc)+E(xc)   XCENC  =         6.55627234
  PAW double counting   =        69.78030285      -69.27333149
  entropy T*S    EENTRO =        -0.11283895
  eigenvalues    EBANDS =        -1.89690772
  atomic energy  EATOM  =        39.92391144
  Solvation  Ediel_sol  =         0.00000000
  ---------------------------------------------------
  free energy    TOTEN  =        -4.86545614 eV

  energy without entropy =       -4.75261719  energy(sigma->0) =       -4.80903667


--------------------------------------------------------------------------------------------------------




--------------------------------------- Iteration      1(  12)  ---------------------------------------


    POTLOK:  cpu time    0.0182: real time    0.0183
    SETDIJ:  cpu time    0.0168: real time    0.0168
     EDDAV:  cpu time    0.0040: real time    0.0040
       DOS:  cpu time    0.0001: real time    0.0002
    --------------------------------------------
      LOOP:  cpu time    0.0391: real time    0.0393

 eigenvalue-minimisations  :    12
 total energy-change (2. order) :-0.2605530E-04  (-0.4752627E-05)
 number of electron       2.9999996 magnetization       0.9999156
 augmentation part       -0.0299935 magnetization       0.0223935

 Free energy of the ion-electron system (eV)
  ---------------------------------------------------
  alpha Z        PSCENC =         5.84199100
  Ewald energy   TEWEN  =       -55.24064177
  -Hartree energ DENC   =        -0.44785631
  -exchange      EXHF   =         0.00000000
  -V(xc)+E(xc)   XCENC  =         6.55799767
  PAW double counting   =        69.57087185      -69.06253155
  entropy T*S    EENTRO =        -0.11283872
  eigenvalues    EBANDS =        -1.89638581
  atomic energy  EATOM  =        39.92391144
  Solvation  Ediel_sol  =         0.00000000
  ---------------------------------------------------
  free energy    TOTEN  =        -4.86548220 eV

  energy without entropy =       -4.75264348  energy(sigma->0) =       -4.80906284


--------------------------------------------------------------------------------------------------------




 average (electrostatic) potential at core
  the test charge radii are     0.9943  0.5201
  (the norm of the test charge is              1.0000)
       1 -23.6125       2 -34.1510



 E-fermi :  14.8387     XC(G=0): -10.3241     alpha+bet :-12.2772

 Fermi energy:        14.8387436029

 spin component 1

 k-point     1 :       0.0000    0.0000    0.0000
  band No.  band energies     occupation 
      1      -8.7902      1.00000
      2      14.8387      0.50026
      3      14.8388      0.49974
      4      15.5060      0.00000
      5      16.8373      0.00000
      6      21.0244      0.00000
 Fermi energy:        14.8387436029

 spin component 2

 k-point     1 :       0.0000    0.0000    0.0000
  band No.  band energies     occupation 
      1      -7.9449      1.00000
      2      16.6371      0.00000
      3      17.3862      0.00000
      4      17.4192      0.00000
      5      17.4193      0.00000
      6      21.5156      0.00000


--------------------------------------------------------------------------------------------------------


 soft charge-density along one line, spin component           1
         0         1         2         3         4         5         6         7         8         9
 total charge-density along one line

 soft charge-density along one line, spin component           2
         0         1         2         3         4         5         6         7         8         9
 total charge-density along one line

 pseudopotential strength for first ion, spin component:           1
  3.793  -7.371   0.000   0.000  -0.000  -0.000  -0.000   0.000
 -7.371  31.603  -0.000  -0.000   0.000   0.000   0.000  -0.000
  0.000  -0.000  -0.815  -0.000   0.000   3.246  -0.000   0.000
  0.000  -0.000  -0.000  -0.821  -0.000  -0.000   3.361  -0.000
 -0.000   0.000   0.000  -0.000  -0.815   0.000  -0.000   3.246
 -0.000   0.000   3.246  -0.000   0.000 -47.457   0.000  -0.000
 -0.000   0.000  -0.000   3.361  -0.000   0.000 -48.114   0.000
  0.000  -0.000   0.000  -0.000   3.246  -0.000   0.000 -47.457
 -0.000  -0.000   0.000   0.000  -0.000   0.000   0.000  -0.000
  0.000   0.000  -0.000  -0.000   0.000  -0.000  -0.000   0.000
 -0.061   0.049   0.000  -0.000  -0.000   0.000  -0.000  -0.000
  0.000   0.000   0.000   0.000  -0.000   0.000   0.000  -0.000
  0.000   0.000   0.000  -0.000   0.000   0.000  -0.000   0.000
 pseudopotential strength for first ion, spin component:           2
  3.581  -6.878   0.000   0.000  -0.000  -0.000  -0.000   0.000
 -6.878  30.468  -0.000  -0.000   0.000   0.000   0.000  -0.000
  0.000  -0.000  -0.905   0.000   0.000   3.759   0.000   0.000
  0.000  -0.000   0.000  -0.924   0.000   0.000   3.731   0.000
 -0.000   0.000   0.000   0.000  -0.905   0.000   0.000   3.759
 -0.000   0.000   3.759   0.000   0.000 -49.400  -0.000  -0.000
 -0.000   0.000   0.000   3.731   0.000  -0.000 -49.125  -0.000
  0.000  -0.000   0.000   0.000   3.759  -0.000  -0.000 -49.400
 -0.000  -0.000   0.000  -0.000  -0.000   0.000  -0.000  -0.000
 -0.000  -0.000  -0.000  -0.000  -0.000  -0.000  -0.000  -0.000
  0.042   0.031   0.000  -0.000  -0.000   0.000  -0.000  -0.000
 -0.000  -0.000  -0.000   0.000  -0.000  -0.000   0.000  -0.000
  0.000   0.000   0.000  -0.000   0.000   0.000  -0.000   0.000
 total augmentation occupancy for first ion, spin component:           1
  1.759   0.090   0.000   0.000   0.000   0.000   0.000   0.000   0.000   0.000   0.003   0.000   0.000
  0.090   0.005   0.000   0.000   0.000   0.000   0.000   0.000   0.000  -0.000   0.000   0.000   0.000
  0.000   0.000   1.358  -0.000  -0.000  -0.040   0.000   0.000   0.000   0.000   0.000   0.000   0.000
  0.000   0.000  -0.000   0.000   0.000   0.000  -0.000  -0.000   0.000   0.000   0.000   0.000   0.000
  0.000   0.000  -0.000   0.000   1.358   0.000  -0.000  -0.040   0.000   0.000   0.000   0.000   0.000
  0.000   0.000  -0.040   0.000   0.000   0.001   0.000  -0.000   0.000   0.000   0.000   0.000   0.000
  0.000   0.000   0.000  -0.000  -0.000   0.000   0.000   0.000   0.000   0.000   0.000   0.000   0.000
  0.000   0.000   0.000  -0.000  -0.040  -0.000   0.000   0.001   0.000   0.000   0.000   0.000   0.000
  0.000   0.000   0.000   0.000   0.000   0.000   0.000   0.000   0.000  -0.000   0.000   0.000   0.000
  0.000  -0.000   0.000   0.000   0.000   0.000   0.000   0.000  -0.000   0.000  -0.000  -0.000   0.000
  0.003   0.000   0.000   0.000   0.000   0.000   0.000   0.000   0.000  -0.000   0.000   0.000   0.000
  0.000   0.000   0.000   0.000   0.000   0.000   0. -----------------------------------------------------------------------------------------------
   -.763E-09 0.295E-07 0.900E-07   0.830E-07 -.323E-05 -.988E-05   0.103E-21 0.125E-21 -.195E-22   -.228E-10 0.896E-09 0.266E-08
   -.157E-06 0.610E-05 0.207E-04   -.830E-07 0.323E-05 0.988E-05   -.678E-23 -.962E-23 0.128E-23   0.133E-09 -.441E-08 -.117E-07
 -----------------------------------------------------------------------------------------------
   -.157E-06 0.613E-05 0.208E-04   -.114E-15 0.374E-16 -.439E-16   0.961E-22 0.115E-21 -.182E-22   0.110E-09 -.351E-08 -.901E-08


 POSITION                                       TOTAL-FORCE (eV/Angst)
 -----------------------------------------------------------------------------------
      0.00000      0.00000      0.00000        -0.000000      0.000000     -0.000000
      0.00000      1.60324      1.13334         0.000000     -0.000000      0.000000
 -----------------------------------------------------------------------------------
    total drift:                               -0.000000      0.000006      0.000021


--------------------------------------------------------------------------------------------------------



  FREE ENERGIE OF THE ION-ELECTRON SYSTEM (eV)
  ---------------------------------------------------
  free  energy   TOTEN  =        -4.86548220 eV

  energy  without entropy=       -4.75264348  energy(sigma->0) =       -4.80906284



--------------------------------------------------------------------------------------------------------


    POTLOK:  cpu time    0.0355: real time    0.0356


--------------------------------------------------------------------------------------------------------




--------------------------------------------------------------------------------------------------------


  
 reached required accuracy - stopping structural energy minimisation
 writing wavefunctions
     LOOP+:  cpu time    0.5243: real time    2.4633
173
    FORHAR:  cpu time    0.0020: real time    0.0020
    MIXING:  cpu time    0.0005: real time    0.0005
    OFIELD:  cpu time    0.0000: real time    0.0000

  FORCE on cell =-STRESS in cart. coord.  units (eV):
  Direction    XX          YY          ZZ          XY          YZ          ZX
  --------------------------------------------------------------------------------------
  Alpha Z     5.84199     5.84199     5.84199
  Ewald     -18.41465   -18.41465   -18.41134     0.00000     0.00000    -0.00000
  Hartree     0.12216     0.12216     0.20411    -0.00000    -0.00000     0.00000
  E(xc)      -8.18209    -8.18201    -8.01357     0.00002    -0.00000    -0.00000
  Local      -1.10568    -1.10574     0.91219     0.00000     0.00002     0.00000
  n-local    -0.66347    -0.66120     1.12095     0.00042    -0.00025    -0.00000
  augment    -0.16536    -0.16536    -0.15970     0.00003     0.00000     0.00000
  Kinetic    32.10108    32.09866     4.36020    -0.00660     0.00026     0.00000
  Fock        0.00000     0.00000     0.00000     0.00000     0.00000     0.00000
  -------------------------------------------------------------------------------------
  Total       9.53392     9.53393   -14.14517    -0.00000    -0.00000    -0.00000
  in kB    1310.88442  1310.88524 -1944.91707    -0.00041    -0.00000    -0.00000
  external pressure =      225.62 kB  Pullay stress =        0.00 kB


 VOLUME and BASIS-vectors are now :
 -----------------------------------------------------------------------------
  energy-cutoff  :      250.00
  volume of cell :       11.65
      direct lattice vectors                 reciprocal lattice vectors
     1.603240000  1.603240000  0.000000000     0.623736933  0.000000000 -0.000000000
    -0.000000000  3.206481000  0.000000000    -0.311868369  0.311868369  0.000000000
     0.000000000  0.000000000  2.266682000     0.000000000 -0.000000000  0.441173486

  length of vectors
     2.267323752  3.206481000  2.266682000     0.623736933  0.441048477  0.441173486


 FORCES acting on ions
    electron-ion (+dipol)            ewald-force                    non-local-force                 convergence-correction
    4ORBIT:  cpu time    0.0000: real time    0.0034

 total amount of memory used by VASP MPI-rank0    31322. kBytes
=======================================================================

   base      :      30000. kBytes
   nonl-proj :         11. kBytes
   fftplans  :        356. kBytes
   grid      :        929. kBytes
   one-center:         16. kBytes
   wavefun   :         10. kBytes

  
  
 General timing and accounting informations for this job:
 ========================================================
  
                  Total CPU time used (sec):        0.977
                            User time (sec):        0.761
                          System time (sec):        0.216
                         Elapsed time (sec):        6.793
  
                   Maximum memory used (kb):      217868.
                   Average memory used (kb):          N/A
  
                          Minor page faults:        10276
                          Major page faults:          277
                 Voluntary context switches:         2214
0      0.000006      0.000021


--------------------------------------------------------------------------------------------------------



  FREE ENERGIE OF THE ION-ELECTRON SYSTEM (eV)
  ---------------------------------------------------
  free  energy   TOTEN  =        -4.86548220 eV

  energy  without entropy=       -4.75264348  energy(sigma->0) =       -4.80906284



--------------------------------------------------------------------------------------------------------


    POTLOK:  cpu time    0.0342: real time    0.0343


--------------------------------------------------------------------------------------------------------




--------------------------------------------------------------------------------------------------------


  
 reached required accuracy - stopping structural energy minimisation
 writing wavefunctions
     LOOP+:  cpu time    0.5210: real time    2.2689
    4ORBIT:  cpu time    0.0000: real time    0.0000

 total amount of memory used by VASP MPI-rank0    31322. kBytes
=======================================================================

   base      :      30000. kBytes
   nonl-proj :         11. kBytes
   fftplans  :        356. kBytes
   grid      :        929. kBytes
   one-center:         16. kBytes
   wavefun   :         10. kBytes

  
  
 General timing and accounting informations for this job:
 ========================================================
  
                  Total CPU time used (sec):        0.970
                            User time (sec):        0.755
                          System time (sec):        0.216
                         Elapsed time (sec):        8.668
  
                   Maximum memory used (kb):      218000.
                   Average memory used (kb):          N/A
  
                          Minor page faults:        10820
                          Major page faults:          230
                 Voluntary context switches:         2236
