<?xml version="1.0" encoding="ISO-8859-1"?>
<modeling>
 <generator>
  <i name="program" type="string">vasp </i>
  <i name="version" type="string">6.2.1  </i>
  <i name="subversion" type="string">16May21 (build Dec 20 2021 17:15:01) gamma-only                       parallel </i>
  <i name="platform" type="string">LinuxGNU </i>
  <i name="date" type="string">2026 02 02 </i>
  <i name="time" type="string">13:56:47 </i>
 </generator>
 <incar>
  <i type="int" name="ISPIN">     2</i>
  <i type="int" name="IBRION">     2</i>
  <i type="int" name="NSW">     5</i>
  <i type="int" name="ISIF">     3</i>
  <i type="int" name="ISMEAR">     0</i>
 </incar>
 <primitive_cell>
  <structure name="primitive_cell" >
   <crystal>
    <varray name="basis" >
     <v>       1.60324000       1.60324000       0.00000000 </v>
     <v>      -0.00000000       3.20648100       0.00000000 </v>
     <v>       0.00000000       0.00000000       2.26668200 </v>
    </varray>
    <i name="volume">     11.65246498 </i>
    <varray name="rec_basis" >
     <v>       0.62373693       0.00000000      -0.00000000 </v>
     <v>      -0.31186837       0.31186837       0.00000000 </v>
     <v>       0.00000000      -0.00000000       0.44117349 </v>
    </varray>
   </crystal>
   <varray name="positions" >
    <v>       0.00000000       0.00000000       0.00000000 </v>
    <v>       0.00000000       0.49999990       0.49999958 </v>
   </varray>
  </structure>
  <varray name="primitive_index" >
   <v type="int" >        1 </v>
   <v type="int" >        2 </v>
  </varray>
 </primitive_cell>
 <kpoints>
  <generation param="Monkhorst-Pack">
   <v type="int" name="divisions">       1        1        1 </v>
   <v name="usershift">      0.00000000       0.00000000       0.00000000 </v>
   <v name="genvec1">      1.00000000       0.00000000       0.00000000 </v>
   <v name="genvec2">     -0.00000000       1.00000000       0.00000000 </v>
   <v name="genvec3">      0.00000000       0.00000000       1.00000000 </v>
   <v name="shift">      0.00000000       0.00000000       0.00000000 </v>
  </generation>
  <varray name="kpointlist" >
   <v>       0.00000000       0.00000000       0.00000000 </v>
  </varray>
  <varray name="weights" >
   <v>       1.00000000 </v>
  </varray>
 </kpoints>
 <parameters>
  <separator name="general" >
   <i type="string" name="SYSTEM">unknown system</i>
   <i type="logical" name="LCOMPAT"> F  </i>
  </separator>
  <separator name="electronic" >
   <i type="string" name="PREC">normal</i>
   <i name="ENMAX">    250.00000000</i>
   <i name="ENAUG">    527.98500000</i>
   <i name="EDIFF">      0.00010000</i>
   <i type="int" name="IALGO">    38</i>
   <i type="int" name="IWAVPR">    11</i>
   <i type="int" name="NBANDS">     6</i>
   <i type="int" name="NBANDSLOW">    -1</i>
   <i type="int" name="NBANDSHIGH">    -1</i>
   <i name="NELECT">      3.00000000</i>
   <i type="int" name="TURBO">     0</i>
   <i type="int" name="IRESTART">     0</i>
   <i type="int" name="NREBOOT">     0</i>
   <i type="int" name="NMIN">     0</i>
   <i name="EREF">      0.00000000</i>
   <separator name="electronic smearing" >
    <i type="int" name="ISMEAR">     0</i>
    <i name="SIGMA">      0.20000000</i>
    <i name="KSPACING">      0.50000000</i>
    <i type="logical" name="KGAMMA"> T  </i>
    <i type="logical" name="KBLOWUP"> T  </i>
   </separator>
   <separator name="electronic projectors" >
    <i type="logical" name="LREAL"> F  </i>
    <v name="ROPT">      0.00000000      0.00000000</v>
    <i type="int" name="LMAXPAW">  -100</i>
    <i type="int" name="LMAXMIX">     2</i>
    <i type="logical" name="NLSPLINE"> F  </i>
   </separator>
   <separator name="electronic startup" >
    <i type="int" name="ISTART">     1</i>
    <i type="int" name="ICHARG">     0</i>
    <i type="int" name="INIWAV">     1</i>
   </separator>
   <separator name="electronic spin" >
    <i type="int" name="ISPIN">     2</i>
    <i type="logical" name="LNONCOLLINEAR"> F  </i>
    <v name="MAGMOM">      1.00000000      1.00000000</v>
    <i name="NUPDOWN">     -1.00000000</i>
    <i type="logical" name="LSORBIT"> F  </i>
    <v name="SAXIS">      0.00000000      0.00000000      1.00000000</v>
    <i type="logical" name="LSPIRAL"> F  </i>
    <v name="QSPIRAL">      0.00000000      0.00000000      0.00000000</v>
    <i type="logical" name="LZEROZ"> F  </i>
   </separator>
   <separator name="electronic exchange-correlation" >
    <i type="logical" name="LASPH"> F  </i>
    <i type="logical" name="LMETAGGA"> F  </i>
   </separator>
   <separator name="electronic convergence" >
    <i type="int" name="NELM">    60</i>
    <i type="int" name="NELMDL">     0</i>
    <i type="int" name="NELMIN">     2</i>
    <i name="ENINI">    250.00000000</i>
    <separator name="electronic convergence detail" >
     <i type="logical" name="LDIAG"> T  </i>
     <i type="logical" name="LSUBROT"> F  </i>
     <i name="WEIMIN">      0.00100000</i>
     <i name="EBREAK">      0.00000417</i>
     <i name="DEPER">      0.30000000</i>
     <i type="int" name="NRMM">     4</i>
     <i name="TIME">      0.40000000</i>
    </separator>
   </separator>
   <separator name="electronic mixer" >
    <i name="AMIX">      0.40000000</i>
    <i name="BMIX">      1.00000000</i>
    <i name="AMIN">      0.10000000</i>
    <i name="AMIX_MAG">      1.60000000</i>
    <i name="BMIX_MAG">      1.00000000</i>
    <separator name="electronic mixer details" >
     <i type="int" name="IMIX">     4</i>
     <i type="logical" name="MIXFIRST"> F  </i>
     <i type="int" name="MAXMIX">   -45</i>
     <i name="WC">    100.00000000</i>
     <i type="int" name="INIMIX">     1</i>
     <i type="int" name="MIXPRE">     1</i>
     <i type="int" name="MREMOVE">     5</i>
    </separator>
   </separator>
   <separator name="electronic dipolcorrection" >
    <i type="logical" name="LDIPOL"> F  </i>
    <i type="logical" name="LMONO"> F  </i>
    <i type="int" name="IDIPOL">     0</i>
    <i name="EPSILON">      1.00000000</i>
    <v name="DIPOL">   -100.00000000   -100.00000000   -100.00000000</v>
    <i name="EFIELD">      0.00000000</i>
   </separator>
  </separator>
  <separator name="grids" >
   <i type="int" name="NGX">    10</i>
   <i type="int" name="NGY">    12</i>
   <i type="int" name="NGZ">    10</i>
   <i type="int" name="NGXF">    20</i>
   <i type="int" name="NGYF">    24</i>
   <i type="int" name="NGZF">    20</i>
   <i type="logical" name="ADDGRID"> F  </i>
  </separator>
  <separator name="ionic" >
   <i type="int" name="NSW">     5</i>
   <i type="int" name="IBRION">     2</i>
   <i type="int" name="MDALGO">     0</i>
   <i type="int" name="ISIF">     3</i>
   <i name="PSTRESS">      0.00000000</i>
   <i name="EDIFFG">      0.00100000</i>
   <i type="int" name="NFREE">     1</i>
   <i name="POTIM">      0.50000000</i>
   <i name="SMASS">     -3.00000000</i>
   <i name="SCALEE">      1.00000000</i>
  </separator>
  <separator name="ionic md" >
   <i name="TEBEG">      0.00010000</i>
   <i name="TEEND">      0.00010000</i>
   <i type="int" name="NBLOCK">     1</i>
   <i type="int" name="KBLOCK">     5</i>
   <i type="int" name="NPACO">   256</i>
   <i name="APACO">     16.00000000</i>
  </separator>
  <separator name="symmetry" >
   <i type="int" name="ISYM">     2</i>
   <i name="SYMPREC">      0.00001000</i>
  </separator>
  <separator name="dos" >
   <i type="int" name="LORBIT">     0</i>
   <v name="RWIGS">     -1.00000000     -1.00000000</v>
   <i type="int" name="NEDOS">   301</i>
   <i name="EMIN">     10.00000000</i>
   <i name="EMAX">    -10.00000000</i>
   <i name="EFERMI">      0.00000000</i>
  </separator>
  <separator name="writing" >
   <i type="int" name="NWRITE">     2</i>
   <i type="logical" name="LWAVE"> T  </i>
   <i type="logical" name="LDOWNSAMPLE"> F  </i>
   <i type="logical" name="LCHARG"> T  </i>
   <i type="logical" name="LPARD"> F  </i>
   <i type="logical" name="LVTOT"> F  </i>
   <i type="logical" name="LVHAR"> F  </i>
   <i type="logical" name="LELF"> F  </i>
   <i type="logical" name="LOPTICS"> F  </i>
   <v name="STM">      0.00000000      0.00000000      0.00000000      0.00000000      0.00000000      0.00000000      0.00000000</v>
  </separator>
  <separator name="performance" >
   <i type="int" name="NPAR">     1</i>
   <i type="int" name="NSIM">     4</i>
   <i type="int" name="NBLK">    -1</i>
   <i type="logical" name="LPLANE"> T  </i>
   <i type="logical" name="LSCALAPACK"> T  </i>
   <i type="logical" name="LSCAAWARE"> F  </i>
   <i type="logical" name="LSCALU"> F  </i>
   <i type="logical" name="LASYNC"> F  </i>
   <i type="logical" name="LORBITALREAL"> F  </i>
  </separator>
  <separator name="miscellaneous" >
   <i type="int" name="IDIOT">     3</i>
   <i type="int" name="PHON_NSTRUCT">    -1</i>
   <i type="logical" name="LMUSIC"> F  </i>
   <v name="POMASS">      9.01300000      1.00000000</v>
   <v name="DARWINR">      0.00000000      0.00000000</v>
   <v name="DARWINV">      1.00000000      1.00000000</v>
   <i type="logical" name="LCORR"> T  </i>
  </separator>
  <i type="logical" name="GGA_COMPAT"> T  </i>
  <i type="logical" name="LBERRY"> F  </i>
  <i type="int" name="ICORELEVEL">     0</i>
  <i type="logical" name="LDAU"> F  </i>
  <i type="int" name="I_CONSTRAINED_M">     0</i>
  <separator name="electronic exchange-correlation" >
   <i type="string" name="GGA">--</i>
   <i type="int" name="VOSKOWN">     0</i>
   <i type="logical" name="LHFCALC"> F  </i>
   <i type="string" name="PRECFOCK"></i>
   <i type="logical" name="LSYMGRAD"> F  </i>
   <i type="logical" name="LHFONE"> F  </i>
   <i type="logical" name="LRHFCALC"> F  </i>
   <i type="logical" name="LTHOMAS"> F  </i>
   <i type="logical" name="LMODELHF"> F  </i>
   <i type="logical" name="LFOCKACE"> F  </i>
   <i name="ENCUT4O">     -1.00000000</i>
   <i type="int" name="EXXOEP">     0</i>
   <i type="int" name="FOURORBIT">     0</i>
   <i name="AEXX">      0.00000000</i>
   <i name="HFALPHA">      0.00000000</i>
   <i name="MCALPHA">      0.00000000</i>
   <i name="ALDAX">      1.00000000</i>
   <i name="AGGAX">      1.00000000</i>
   <i name="ALDAC">      1.00000000</i>
   <i name="AGGAC">      1.00000000</i>
   <i type="int" name="NKREDX">     1</i>
   <i type="int" name="NKREDY">     1</i>
   <i type="int" name="NKREDZ">     1</i>
   <i type="logical" name="SHIFTRED"> F  </i>
   <i type="logical" name="ODDONLY"> F  </i>
   <i type="logical" name="EVENONLY"> F  </i>
   <i type="int" name="LMAXFOCK">     0</i>
   <i type="int" name="NMAXFOCKAE">     0</i>
   <i type="logical" name="LFOCKAEDFT"> F  </i>
   <i name="HFSCREEN">      0.00000000</i>
   <i name="HFSCREENC">      0.00000000</i>
   <i type="int" name="NBANDSGWLOW">     0</i>
  </separator>
  <separator name="vdW DFT" >
   <i type="logical" name="LUSE_VDW"> F  </i>
   <i name="Zab_VDW">     -0.84910000</i>
   <i name="PARAM1">      0.12340000</i>
   <i name="PARAM2">      1.00000000</i>
   <i name="PARAM3">      0.00000000</i>
  </separator>
  <separator name="model GW" >
   <i type="int" name="MODEL_GW">     0</i>
   <i name="MODEL_EPS0">      3.49573949</i>
   <i name="MODEL_ALPHA">      1.00000000</i>
  </separator>
  <separator name="linear response parameters" >
   <i type="logical" name="LEPSILON"> F  </i>
   <i type="logical" name="LRPA"> F  </i>
   <i type="logical" name="LNABLA"> F  </i>
   <i type="logical" name="LVEL"> F  </i>
   <i type="int" name="KINTER">     0</i>
   <i name="CSHIFT">      0.10000000</i>
   <i name="OMEGAMAX">     -1.00000000</i>
   <i name="DEG_THRESHOLD">      0.00200000</i>
   <i name="RTIME">     -0.10000000</i>
   <i name="WPLASMAI">      0.00000000</i>
   <v name="DFIELD">      0.00000000      0.00000000      0.00000000</v>
   <v name="WPLASMA">      0.00000000      0.00000000      0.00000000      0.00000000      0.00000000      0.00000000      0.00000000      0.00000000      0.00000000</v>
  </separator>
  <separator name="orbital magnetization" >
   <i type="logical" name="NUCIND"> F  </i>
   <v name="MAGPOS">      0.00000000      0.00000000      0.00000000</v>
   <i type="logical" name="LNICSALL"> T  </i>
   <i type="logical" name="ORBITALMAG"> F  </i>
   <i type="logical" name="LMAGBLOCH"> F  </i>
   <i type="logical" name="LCHIMAG"> F  </i>
   <i type="logical" name="LGAUGE"> T  </i>
   <i type="int" name="MAGATOM">     0</i>
   <v name="MAGDIPOL">      0.00000000      0.00000000      0.00000000</v>
   <v name="AVECCONST">      0.00000000      0.00000000      0.00000000</v>
  </separator>
  <separator name="response functions" >
   <i type="logical" name="LFINITE_TEMPERATURE"> F  </i>
   <i type="logical" name="LADDER"> F  </i>
   <i type="logical" name="LRPAFORCE"> F  </i>
   <i type="logical" name="LFXC"> F  </i>
   <i type="logical" name="LHARTREE"> T  </i>
   <i type="int" name="IBSE">     0</i>
   <v type="int" name="KPOINT">    -1     0     0     0</v>
   <i type="logical" name="LTCTC"> F  </i>
   <i type="logical" name="LTCTE"> F  </i>
   <i type="logical" name="LTETE"> F  </i>
   <i type="logical" name="LTRIPLET"> F  </i>
   <i type="logical" name="LFXCEPS"> F  </i>
   <i type="logical" name="LFXHEG"> F  </i>
   <i type="int" name="NATURALO">     2</i>
   <i type="logical" name="LHOLEGF"> F  </i>
   <i type="logical" name="L2ORDER"> F  </i>
   <i type="logical" name="LDMP1"> F  </i>
   <i type="logical" name="LMP2LT"> F  </i>
   <i type="logical" name="LSMP2LT"> F  </i>
   <i type="logical" name="LGWLF"> F  </i>
   <i name="ENCUTGW">     -2.00000000</i>
   <i name="ENCUTGWSOFT">     -2.00000000</i>
   <i name="ENCUTLF">     -1.00000000</i>
   <i type="logical" name="LESF_SPLINES"> F  </i>
   <i type="int" name="LMAXMP2">    -1</i>
   <i name="SCISSOR">      0.00000000</i>
   <i type="int" name="NOMEGA">     0</i>
   <i type="int" name="NOMEGAR">     0</i>
   <i type="int" name="NBANDSGW">    -1</i>
   <i type="int" name="NBANDSO">    -1</i>
   <i type="int" name="NBANDSV">    -1</i>
   <i type="int" name="NELM">     1</i>
   <i type="int" name="NELMHF">     1</i>
   <i type="int" name="DIM">     3</i>
   <i type="int" name="IESPILON">     4</i>
   <i type="int" name="ANTIRES">     0</i>
   <i name="OMEGAMAX">    -30.00000000</i>
   <i name="OMEGAMIN">    -30.00000000</i>
   <i name="OMEGATL">   -200.00000000</i>
   <i type="int" name="OMEGAGRID">     0</i>
   <i name="CSHIFT">     -0.10000000</i>
   <i type="logical" name="LSELFENERGY"> F  </i>
   <i type="logical" name="LSPECTRAL"> F  </i>
   <i type="logical" name="LSPECTRALGW"> F  </i>
   <i type="logical" name="LSINGLES"> F  </i>
   <i type="logical" name="LFERMIGW"> F  </i>
   <i type="logical" name="ODDONLYGW"> F  </i>
   <i type="logical" name="EVENONLYGW"> F  </i>
   <i type="int" name="NKREDLFX">     1</i>
   <i type="int" name="NKREDLFY">     1</i>
   <i type="int" name="NKREDLFZ">     1</i>
   <i type="int" name="MAXMEM">  2800</i>
   <i type="int" name="TELESCOPE">     0</i>
   <i type="int" name="NTAUPAR">    -1</i>
   <i type="int" name="NOMEGAPAR">    -1</i>
   <i name="DAMP_NEWTON">      0.80000001</i>
   <i name="LAMBDA">      1.00000000</i>
  </separator>
  <separator name="External order field" >
   <i name="OFIELD_KAPPA">      0.00000000</i>
   <v name="OFIELD_K">      0.00000000      0.00000000      0.00000000</v>
   <i name="OFIELD_Q6_NEAR">      0.00000000</i>
   <i name="OFIELD_Q6_FAR">      0.00000000</i>
   <i name="OFIELD_A">      0.00000000</i>
  </separator>
 </parameters>
 <atominfo>
  <atoms>       2 </atoms>
  <types>       2 </types>
  <array name="atoms" >
   <dimension dim="1">ion</dimension>
   <field type="string">element</field>
   <field type="int">atomtype</field>
   <set>
    <rc><c>Be</c><c>   1</c></rc>
    <rc><c>H </c><c>   2</c></rc>
   </set>
  </array>
  <array name="atomtypes" >
   <dimension dim="1">type</dimension>
   <field type="int">atomspertype</field>
   <field type="string">element</field>
   <field>mass</field>
   <field>valence</field>
   <field type="string">pseudopotential</field>
   <set>
    <rc><c>   1</c><c>Be</c><c>      9.01300000</c><c>      2.00000000</c><c>  PAW_PBE Be_GW 04Mar2008               </c></rc>
    <rc><c>   1</c><c>H </c><c>      1.00000000</c><c>      1.00000000</c><c>  PAW_PBE H 15Jun2001                   </c></rc>
   </set>
  </array>
 </atominfo>
 <structure name="initialpos" >
  <crystal>
   <varray name="basis" >
    <v>       1.60324000       1.60324000       0.00000000 </v>
    <v>      -0.00000000       3.20648100       0.00000000 </v>
    <v>       0.00000000       0.00000000       2.26668200 </v>
   </varray>
   <i name="volume">     11.65246498 </i>
   <varray name="rec_basis" >
    <v>       0.62373693       0.00000000      -0.00000000 </v>
    <v>      -0.31186837       0.31186837       0.00000000 </v>
    <v>       0.00000000      -0.00000000       0.44117349 </v>
   </varray>
  </crystal>
  <varray name="positions" >
   <v>       0.00000000       0.00000000       0.00000000 </v>
   <v>       0.00000000       0.49999990       0.49999958 </v>
  </varray>
 </structure>
 <calculation>
  <scstep>
   <time name="dav">    0.00    0.00</time>
   <time name="total">    0.04    0.40</time>
   <energy>
    <i name="alphaZ">      5.84199100 </i>
    <i name="ewald">    -55.24064177 </i>
    <i name="hartreedc">     -0.44844031 </i>
    <i name="XCdc">      6.55830394 </i>
    <i name="pawpsdc">     69.57401022 </i>
    <i name="pawaedc">    -69.06568709 </i>
    <i name="eentropy">     -0.11283860 </i>
    <i name="bandstr">     -1.89610264 </i>
    <i name="atom">     39.92391144 </i>
    <i name="e_fr_energy">     -4.86549381 </i>
    <i name="e_wo_entrp">     -4.75265521 </i>
    <i name="e_0_energy">     -4.80907451 </i>
   </energy>
  </scstep>
  <scstep>
   <time name="dav">    0.00    0.00</time>
   <time name="total">    0.04    0.04</time>
   <energy>
    <i name="alphaZ">      5.84199100 </i>
    <i name="ewald">    -55.24064177 </i>
    <i name="hartreedc">     -0.44843146 </i>
    <i name="XCdc">      6.55833466 </i>
    <i name="pawpsdc">     69.57597323 </i>
    <i name="pawaedc">    -69.06766986 </i>
    <i name="eentropy">     -0.11283859 </i>
    <i name="bandstr">     -1.89612256 </i>
    <i name="atom">     39.92391144 </i>
    <i name="e_fr_energy">     -4.86549391 </i>
    <i name="e_wo_entrp">     -4.75265532 </i>
    <i name="e_0_energy">     -4.80907461 </i>
   </energy>
  </scstep>
  <structure>
   <crystal>
    <varray name="basis" >
     <v>       1.60324000       1.60324000       0.00000000 </v>
     <v>      -0.00000000       3.20648100       0.00000000 </v>
     <v>       0.00000000       0.00000000       2.26668200 </v>
    </varray>
    <i name="volume">     11.65246498 </i>
    <varray name="rec_basis" >
     <v>       0.62373693       0.00000000      -0.00000000 </v>
     <v>      -0.31186837       0.31186837       0.00000000 </v>
     <v>       0.00000000      -0.00000000       0.44117349 </v>
    </varray>
   </crystal>
   <varray name="positions" >
    <v>       0.00000000       0.00000000       0.00000000 </v>
    <v>       0.00000000       0.49999990       0.49999958 </v>
   </varray>
  </structure>
  <varray name="forces" >
   <v>      -0.00000000       0.00000000       0.00000000 </v>
   <v>       0.00000000      -0.00000000      -0.00000000 </v>
  </varray>
  <varray name="stress" >
   <v>    1310.85164363      -0.00040881       0.00000000 </v>
   <v>      -0.00040881    1310.85246126       0.00000000 </v>
   <v>      -0.00000000      -0.00000000   -1944.81976335 </v>
  </varray>
  <energy>
   <i name="e_fr_energy">     -4.86549391 </i>
   <i name="e_wo_entrp">     -4.75265532 </i>
   <i name="e_0_energy">     -4.80907461 </i>
  </energy>
  <time name="totalsc">    0.22    4.57</time>
 </calculation>
 <calculation>
  <scstep>
   <time name="dav">    0.01    0.01</time>
   <time name="total">    0.05    0.05</time>
   <energy>
    <i name="alphaZ">      5.86152540 </i>
    <i name="ewald">    -52.06145433 </i>
    <i name="hartreedc">     -0.48179096 </i>
    <i name="XCdc">      6.58991339 </i>
    <i name="pawpsdc">     69.57626194 </i>
    <i name="pawaedc">    -69.06796009 </i>
    <i name="eentropy">     -0.11283789 </i>
    <i name="bandstr">    -10.73831998 </i>
    <i name="atom">     39.92391144 </i>
    <i name="e_fr_energy">    -10.51075108 </i>
    <i name="e_wo_entrp">    -10.39791319 </i>
    <i name="e_0_energy">    -10.45433213 </i>
   </energy>
  </scstep>
  <scstep>
   <time name="dav">    0.01    0.01</time>
   <time name="total">    0.04    0.04</time>
   <energy>
    <i name="e_fr_energy">    -10.56399045 </i>
    <i name="e_wo_entrp">    -10.45125043 </i>
    <i name="e_0_energy">    -10.50762044 </i>
   </energy>
  </scstep>
  <scstep>
   <time name="dav">    0.01    0.01</time>
   <time name="total">    0.05    0.05</time>
   <energy>
    <i name="e_fr_energy">    -10.63819714 </i>
    <i name="e_wo_entrp">    -10.52536333 </i>
    <i name="e_0_energy">    -10.58178023 </i>
   </energy>
  </scstep>
  <scstep>
   <time name="dav">    0.01    0.01</time>
   <time name="total">    0.04    0.04</time>
   <energy>
    <i name="e_fr_energy">    -10.66098710 </i>
    <i name="e_wo_entrp">    -10.54814944 </i>
    <i name="e_0_energy">    -10.60456827 </i>
   </energy>
  </scstep>
  <scstep>
   <time name="dav">    0.01    0.01</time>
   <time name="total">    0.04    0.04</time>
   <energy>
    <i name="e_fr_energy">    -10.65942187 </i>
    <i name="e_wo_entrp">    -10.54658410 </i>
    <i name="e_0_energy">    -10.60300299 </i>
   </energy>
  </scstep>
  <scstep>
   <time name="dav">    0.01    0.01</time>
   <time name="total">    0.04    0.04</time>
   <energy>
    <i name="e_fr_energy">    -10.65903683 </i>
    <i name="e_wo_entrp">    -10.54619900 </i>
    <i name="e_0_energy">    -10.60261792 </i>
   </energy>
  </scstep>
  <scstep>
   <time name="dav">    0.01    0.01</time>
   <time name="total">    0.04    0.04</time>
   <energy>
    <i name="e_fr_energy">    -10.65884992 </i>
    <i name="e_wo_entrp">    -10.54601210 </i>
    <i name="e_0_energy">    -10.60243101 </i>
   </energy>
  </scstep>
  <scstep>
   <time name="dav">    0.00    0.00</time>
   <time name="total">    0.04    0.04</time>
   <energy>
    <i name="alphaZ">      5.86152540 </i>
    <i name="ewald">    -52.06145433 </i>
    <i name="hartreedc">     -0.52678755 </i>
    <i name="XCdc">      6.59534660 </i>
    <i name="pawpsdc">     80.20076736 </i>
    <i name="pawaedc">    -79.63743694 </i>
    <i name="eentropy">     -0.11283784 </i>
    <i name="bandstr">    -10.90188785 </i>
    <i name="atom">     39.92391144 </i>
    <i name="e_fr_energy">    -10.65885369 </i>
    <i name="e_wo_entrp">    -10.54601585 </i>
    <i name="e_0_energy">    -10.60243477 </i>
   </energy>
  </scstep>
  <structure>
   <crystal>
    <varray name="basis" >
     <v>       1.97192916       1.97192939       0.00000000 </v>
     <v>      -0.00000023       3.94386024       0.00000000 </v>
     <v>      -0.00000000      -0.00000000       1.49332793 </v>
    </varray>
    <i name="volume">     11.61363140 </i>
    <varray name="rec_basis" >
     <v>       0.50711758       0.00000003       0.00000000 </v>
     <v>      -0.25355870       0.25355867      -0.00000000 </v>
     <v>      -0.00000000      -0.00000000       0.66964528 </v>
    </varray>
   </crystal>
   <varray name="positions" >
    <v>      -0.00000000       0.00000000       0.00000000 </v>
    <v>       0.00000000       0.49999990       0.49999958 </v>
   </varray>
  </structure>
  <varray name="forces" >
   <v>      -0.00000000      -0.00000000      -0.00000000 </v>
   <v>       0.00000000       0.00000000       0.00000000 </v>
  </varray>
  <varray name="stress" >
   <v>    -357.24843539       0.00015308      -0.00000000 </v>
   <v>       0.00015308    -357.24874155       0.00000000 </v>
 <calculation>
  <scstep>
   <time name="dav">    0.01    0.01</time>
   <time name="total">    0.05    0.09</time>
   <energy>
    <i name="alphaZ">      5.86152540 </i>
    <i name="ewald">    -52.06145433 </i>
    <i name="hartreedc">     -0.48179096 </i>
    <i name="XCdc">      6.58991339 </i>
 <calculation>
  <scstep>
   <time name="dav">    0.01    0.02</time>
   <time name="total">    0.04    0.08</time>
   <energy>
    <i name="alphaZ">      5.86931791 </i>
    <i name="ewald">    -51.99480937 </i>
    <i name="hartreedc">     -0.52872627 </i>
    <i name="XCdc">      6.59857289 </i>
    <i name="pawpsdc">     80.17301297 </i>
    <i name="pawaedc">    -79.60946233 </i>
    <i name="eentropy">     -0.11283783 </i>
    <i name="bandstr">    -10.98686796 </i>
    <i name="atom">     39.92391144 </i>
    <i name="e_fr_energy">    -10.66788854 </i>
    <i name="e_wo_entrp">    -10.55505070 </i>
    <i name="e_0_energy">    -10.61146962 </i>
   </energy>
  </scstep>
  <scstep>
   <time name="dav">    0.00    0.00</time>
   <time name="total">    0.04    0.04</time>
   <energy>
    <i name="alphaZ">      5.86931791 </i>
    <i name="ewald">    -51.99480937 </i>
    <i name="hartreedc">     -0.52992063 </i>
    <i name="XCdc">      6.59947993 </i>
    <i name="pawpsdc">     80.37839156 </i>
    <i name="pawaedc">    -79.81456842 </i>
    <i name="eentropy">     -0.11283778 </i>
    <i name="bandstr">    -10.98685582 </i>
    <i name="atom">     39.92391144 </i>
    <i name="e_fr_energy">    -10.66789117 </i>
    <i name="e_wo_entrp">    -10.55505338 </i>
    <i name="e_0_energy">    -10.61147227 </i>
   </energy>
  </scstep>
  <structure>
   <crystal>
    <varray name="basis" >
     <v>       1.97529604       1.97529627       0.00000000 </v>
     <v>      -0.00000023       3.95059401       0.00000000 </v>
     <v>      -0.00000000      -0.00000000       1.48626563 </v>
    </varray>
    <i name="volume">     11.59821235 </i>
    <varray name="rec_basis" >
     <v>       0.50625320       0.00000003       0.00000000 </v>
     <v>      -0.25312651       0.25312648      -0.00000000 </v>
     <v>      -0.00000000      -0.00000000       0.67282724 </v>
    </varray>
   </crystal>
   <varray name="positions" >
    <v>      -0.00000000       0.00000000       0.00000000 </v>
    <v>       0.00000000       0.49999990       0.49999958 </v>
   </varray>
  </structure>
  <varray name="forces" >
   <v>      -0.00000000       0.00000000       0.00000000 </v>
   <v>       0.00000000      -0.00000000      -0.00000000 </v>
  </varray>
  <varray name="stress" >
   <v>    -371.95348045       0.00015970       0.00000000 </v>
   <v>       0.00015970    -371.95379985      -0.00000000 </v>
   <v>       0.00000000       0.00000000    -511.68034537 </v>
  </varray>
  <energy>
   <i name="e_fr_energy">    -10.66789117 </i>
   <i name="e_wo_entrp">    -10.55505338 </i>
   <i name="e_0_energy">    -10.61147227 </i>
  </energy>
  <time name="totalsc">    0.19    3.32</time>
 </calculation>
ergy>
  </scstep>
  <structure>
   <crystal>
    <varray name="basis" >
     <v>       1.97192916       1.97192939       0.00000000 </v>
     <v>      -0.00000023       3.94386024       0.00000000 </v>
     <v>      -0.00000000      -0.00000000       1.49332793 </v>
    </varray>
    <i name="volume">     11.61363140 </i>
    <varray name="rec_basis" >
     <v>       0.50711758       0.00000003       0.00000000 </v>
     <v>      -0.25355870       0.25355867      -0.00000000 </v>
     <v>      -0.00000000      -0.00000000       0.66964528 </v>
    </varray>
   </crystal>
   <varray name="positions" >
    <v>      -0.00000000       0.00000000       0.00000000 </v>
    <v>       0.00000000       0.49999990       0.49999958 </v>
   </varray>
  </structure>
  <varray name="forces" >
   <v>      -0.00000000      -0.00000000      -0.00000000 </v>
   <v>       0.00000000       0.00000000       0.00000000 </v>
  </varray>
  <varray name="stress" >
   <v>    -357.24843539       0.00015308      -0.00000000 </v>
   <v>       0.00015308    -357.24874155       0.00000000 </v>
   <v>      -0.00000000      -0.00000000    -540.00994590 </v>
  </varray>
  <energy>
   <i name="e_fr_energy">    -10.65885369 </i>
   <i name="e_wo_entrp">    -10.54601585 </i>
   <i name="e_0_energy">    -10.60243477 </i>
  </energy>
  <time name="totalsc">    0.46    3.91</time>
 </calculation>
 <calculation>
  <scstep>
   <time name="dav">    0.01    0.01</time>
   <time name="total">    0.04    0.08</time>
   <energy>
    <i name="alphaZ">      5.86931791 </i>
    <i name="ewald">    -51.99480937 </i>
    <i name="hartreedc">     -0.52872627 </i>
    <i name="XCdc">      6.59857289 </i>
    <i name="pawpsdc">     80.17301297 </i>
    <i name="pawaedc">    -79.60946233 </i>
    <i name="eentropy">     -0.11283783 </i>
    <i name="bandstr">    -10.98686796 </i>
    <i name="atom">     39.92391144 </i>
    <i name="e_fr_energy">    -10.66788854 </i>
    <i name="e_wo_entrp">    -10.55505070 </i>
    <i name="e_0_energy">    -10.61146962 </i>
   </energy>
  </scstep>
  <scstep>
   <time name="dav">    0.01    0.01</time>
   <time name="total">    0.04    0.06</time>
   <energy>
    <i name="alphaZ">      5.86931791 </i>
    <i name="ewald">    -51.99480937 </i>
    <i name="hartreedc">     -0.52992063 </i>
    <i name="XCdc">      6.59947993 </i>
    <i name="pawpsdc">     80.37839156 </i>
    <i name="pawaedc">    -79.81456842 </i>
    <i name="eentropy">     -0.11283778 </i>
    <i name="bandstr">    -10.98685582 </i>
    <i name="atom">     39.92391144 </i>
    <i name="e_fr_energy">    -10.66789117 </i>
    <i name="e_wo_entrp">    -10.55505338 </i>
    <i name="e_0_energy">    -10.61147227 </i>
   </energy>
  </scstep>
  <structure>
   <crystal>
    <varray name="basis" >
     <v>       1.97529604       1.97529627       0.00000000 </v>
     <v>      -0.00000023       3.95059401       0.00000000 </v>
     <v>      -0.00000000      -0.00000000       1.48626563 </v>
    </varray>
    <i name="volume">     11.59821235 </i>
    <varray name="rec_basis" >
     <v>       0.50625320       0.00000003       0.00000000 </v>
     <v>      -0.25312651       0.25312648      -0.00000000 </v>
     <v>      -0.00000000      -0.00000000       0.67282724 </v>
    </varray>
   </crystal>
   <varray name="positions" >
    <v>      -0.00000000       0.00000000       0.00000000 </v>
    <v>       0.00000000       0.49999990       0.49999958 </v>
   </varray>
  </structure>
  <varray name="forces" >
   <v>      -0.00000000       0.00000000       0.00000000 </v>
   <v>       0.00000000      -0.00000000      -0.00000000 </v>
  </varray>
  <varray name="stress" >
   <v>    -371.95348045       0.00015970       0.00000000 </v>
   <v>       0.00015970    -371.95379985      -0.00000000 </v>
   <v>       0.00000000       0.00000000    -511.68034537 </v>
  </varray>
  <energy>
   <i name="e_fr_energy">    -10.66789117 </i>
   <i name="e_wo_entrp">    -10.55505338 </i>
   <i name="e_0_energy">    -10.61147227 </i>
  </energy>
  <time name="totalsc">    0.20    3.78</time>
 </calculation>
 <calculation>
  <scstep>
   <time name="dav">    0.01    0.01</time>
   <time name="total">    0.04    0.04</time>
   <energy>
    <i name="alphaZ">      7.31834787 </i>
    <i name="ewald">    -54.77914688 </i>
    <i name="hartreedc">     -0.59402931 </i>
    <i name="XCdc">      7.11188790 </i>
    <i name="pawpsdc">     80.61964407 </i>
    <i name="pawaedc">    -80.05666891 </i>
    <i name="eentropy">     -0.11283789 </i>
    <i name="bandstr">    -10.58068861 </i>
    <i name="atom">     39.92391144 </i>
    <i name="e_fr_energy">    -11.14958031 </i>
    <i name="e_wo_entrp">    -11.03674242 </i>
    <i name="e_0_energy">    -11.09316137 </i>
   </energy>
  </scstep>
  <scstep>
   <time name="dav">    0.01    0.01</time>
   <time name="total">    0.04    0.04</time>
   <energy>
    <i name="e_fr_energy">    -11.15223024 </i>
    <i name="e_wo_entrp">    -11.03939238 </i>
    <i name="e_0_energy">    -11.09581131 </i>
   </energy>
  </scstep>
  <scstep>
   <time name="dav">    0.01    0.01</time>
   <time name="total">    0.04    0.04</time>
   <energy>
    <i name="e_fr_energy">    -11.13667698 </i>
    <i name="e_wo_entrp">    -11.02383934 </i>
    <i name="e_0_energy">    -11.08025816 </i>
   </energy>
  </scstep>
  <scstep>
   <time name="dav">    0.01    0.01</time>
   <time name="total">    0.04    0.04</time>
   <energy>
    <i name="e_fr_energy">    -11.13625532 </i>
    <i name="e_wo_entrp">    -11.02341755 </i>
    <i name="e_0_energy">    -11.07983644 </i>
   </energy>
  </scstep>
  <scstep>
   <time name="dav">    0.00    0.00</time>
   <time name="total">    0.04    0.04</time>
   <energy>
    <i name="e_fr_energy">    -11.13387270 </i>
    <i name="e_wo_entrp">    -11.02103489 </i>
    <i name="e_0_energy">    -11.07745380 </i>
   </energy>
  </scstep>
  <scstep>
   <time name="dav">    0.00    0.00</time>
   <time name="total">    0.04    0.04</time>
   <energy>
    <i name="alphaZ">      7.31834787 </i>
    <i name="ewald">    -54.77914688 </i>
    <i name="hartreedc">     -0.64054033 </i>
    <i name="XCdc">      7.12599919 </i>
    <i name="pawpsdc">    115.35540430 </i>
    <i name="pawaedc">   -114.85002361 </i>
    <i name="eentropy">     -0.11283780 </i>
    <i name="bandstr">    -10.47506520 </i>
    <i name="atom">     39.92391144 </i>
    <i name="e_fr_energy">    -11.13395101 </i>
    <i name="e_wo_entrp">    -11.02111321 </i>
    <i name="e_0_energy">    -11.07753211 </i>
   </energy>
  </scstep>
  <structure>
   <crystal>
    <varray name="basis" >
     <v>       1.87914784       1.87914797       0.00000000 </v>
     <v>      -0.00000013       3.75829724      -0.00000000 </v>
     <v>       0.00000000      -0.00000000       1.31708423 </v>
    </varray>
    <i name="volume">      9.30177093 </i>
    <varray name="rec_basis" >
     <v>       0.53215609       0.00000002      -0.00000000 </v>
     <v>      -0.26607795       0.26607793       0.00000000 </v>
     <v>      -0.00000000       0.00000000       0.75925288 </v>
    </varray>
   </crystal>
   <varray name="positions" >
    <v>      -0.00000000       0.00000000       0.00000000 </v>
    <v>       0.00000000       0.49999990       0.49999958 </v>
   </varray>
  </structure>
  <varray name="forces" >
   <v>       0.00000000       0.00000000       0.00000000 </v>
   <v>      -0.00000000      -0.00000000      -0.00000000 </v>
  </varray>
  <varray name="stress" >
   <v>    -378.02529484       0.00014417       0.00000000 </v>
   <v>       0.00014417    -378.02558317      -0.00000000 </v>
   <v>      -0.00000000      -0.00000000      41.59937929 </v>
  </varray>
  <energy>
   <i name="e_fr_energy">    -11.13395101 </i>
   <i name="e_wo_entrp">    -11.02111321 </i>
   <i name="e_0_energy">    -11.07753211 </i>
  </energy>
  <time name="totalsc">    0.38    1.61</time>
 </calculation>
 <calculation>
  <scstep>
   <time name="dav">    0.01    0.01</time>
   <time name="total">    0.05    0.05</time>
   <energy>
    <i name="alphaZ">      7.76652320 </i>
    <i name="ewald">    -55.48946276 </i>
    <i name="hartreedc">     -0.65972474 </i>
    <i name="XCdc">      7.27035098 </i>
    <i name="pawpsdc">    115.12714985 </i>
    <i name="pawaedc">   -114.62263363 </i>
    <i name="eentropy">     -0.11283782 </i>
    <i name="bandstr">    -10.36469240 </i>
    <i name="atom">     39.92391144 </i>
    <i name="e_fr_energy">    -11.16141588 </i>
    <i name="e_wo_entrp">    -11.04857806 </i>
    <i name="e_0_energy">    -11.10499697 </i>
   </energy>
  </scstep>
  <scstep>
   <time name="dav">    0.01    0.01</time>
   <time name="total">    0.04    0.04</time>
   <energy>
    <i name="e_fr_energy">    -11.16145699 </i>
    <i name="e_wo_entrp">    -11.04861920 </i>
    <i name="e_0_energy">    -11.10503810 </i>
   </energy>
  </scstep>
  <scstep>
   <time name="dav">    0.01    0.01</time>
   <time name="total">    0.04    0.04</time>
   <energy>
    <i name="e_fr_energy">    -11.16048883 </i>
    <i name="e_wo_entrp">    -11.04765109 </i>
    <i name="e_0_energy">    -11.10406996 </i>
   </energy>
  </scstep>
  <scstep>
   <time name="dav">    0.01    0.01</time>
   <time name="total">    0.04    0.05</time>
   <energy>
    <i name="e_fr_energy">    -11.16028211 </i>
    <i name="e_wo_entrp">    -11.04744433 </i>
    <i name="e_0_energy">    -11.10386322 </i>
   </energy>
  </scstep>
  <scstep>
   <time name="dav">    0.00    0.00</time>
   <time name="total">    0.04    0.04</time>
   <energy>
    <i name="e_fr_energy">    -11.16010824 </i>
    <i name="e_wo_entrp">    -11.04727045 </i>
    <i name="e_0_energy">    -11.10368934 </i>
   </energy>
  </scstep>
  <scstep>
   <time name="dav">    0.00    0.00</time>
   <time name="total">    0.04    0.14</time>
   <energy>
    <i name="alphaZ">      7.76652320 </i>
    <i name="ewald">    -55.48946276 </i>
    <i name="hartreedc">     -0.68293173 </i>
    <i name="XCdc">      7.27579368 </i>
    <i name="pawpsdc">    126.81538804 </i>
    <i name="pawaedc">   -126.32963998 </i>
    <i name="eentropy">     -0.11283778 </i>
    <i name="bandstr">    -10.32685946 </i>
    <i name="atom">     39.92391144 </i>
    <i name="e_fr_energy">    -11.16011536 </i>
    <i name="e_wo_entrp">    -11.04727758 </i>
    <i name="e_0_energy">    -11.10369647 </i>
   </energy>
  </scstep>
  <structure>
   <crystal>
    <varray name="basis" >
     <v>       1.85468369       1.85468379       0.00000000 </v>
     <v>      -0.00000010       3.70936884      -0.00000000 </v>
     <v>       0.00000000      -0.00000000       1.27403736 </v>
    </varray>
    <i name="volume">      8.76500254 </i>
    <varray name="rec_basis" >
     <v>       0.53917548       0.00000002      -0.00000000 </v>
     <v>      -0.26958765       0.26958763       0.00000000 </v>
     <v>      -0.00000000       0.00000000       0.78490634 </v>
    </varray>
   </crystal>
   <varray name="positions" >
    <v>      -0.00000000       0.00000000       0.00000000 </v>
    <v>       0.00000000       0.49999990       0.49999958 </v>
   </varray>
  </structure>
  <varray name="forces" >
   <v>      -0.00000000       0.00000000       0.00000000 </v>
   <v>       0.00000000      -0.00000000      -0.00000000 </v>
  </varray>
  <varray name="stress" >
   <v>    -372.49372487       0.00013721       0.00000000 </v>
   <v>       0.00013721    -372.49399929       0.00000000 </v>
   <v>       0.00000000       0.00000000     281.92067770 </v>
  </varray>
  <energy>
   <i name="e_fr_energy">    -11.16011536 </i>
   <i name="e_wo_entrp">    -11.04727758 </i>
   <i name="e_0_energy">    -11.10369647 </i>
  </energy>
  <time name="totalsc">    0.38    3.44</time>
  <eigenvalues>
 <calculation>
  <scstep>
   <time name="dav">    0.01    0.01</time>
   <time name="total">    0.04    0.04</time>
   <energy>
    <i name="alphaZ">      7.76652320 </i>
    <i name="ewald">    -55.48946276 </i>
    <i name="hartreedc">     -0.65972474 </i>
    <i name="XCdc">      7.27035098 </i>
    <i name="pawpsdc">    115.12714985 </i>
    <i name="pawaedc">   -114.62263363 </i>
    <i name="eentropy">     -0.11283782 </i>
    <i name="bandstr">    -10.36469240 </i>
    <i name="atom">     39.92391144 </i>
    <i name="e_fr_energy">    -11.16141588 </i>
    <i name="e_wo_entrp">    -11.04857806 </i>
    <i name="e_0_energy">    -11.10499697 </i>
   </energy>
  </scstep>
  <scstep>
   <time name="dav">    0.01    0.01</time>
   <time name="total">    0.04    0.04</time>
   <energy>
    <i name="e_fr_energy">    -11.16145699 </i>
    <i name="e_wo_entrp">    -11.04861920 </i>
    <i name="e_0_energy">    -11.10503810 </i>
   </energy>
  </scstep>
  <scstep>
   <time name="dav">    0.01    0.01</time>
   <time name="total">    0.04    0.04</time>
   <energy>
    <i name="e_fr_energy">    -11.16048883 </i>
    <i name="e_wo_entrp">    -11.04765109 </i>
    <i name="e_0_energy">    -11.10406996 </i>
   </energy>
  </scstep>
  <scstep>
   <time name="dav">    0.01    0.01</time>
   <time name="total">    0.05    0.05</time>
   <energy>
    <i name="e_fr_energy">    -11.16028211 </i>
    <i name="e_wo_entrp">    -11.04744433 </i>
    <i name="e_0_energy">    -11.10386322 </i>
   </energy>
  </scstep>
  <scstep>
   <time name="dav">    0.00    0.00</time>
   <time name="total">    0.04    0.04</time>
   <energy>
    <i name="e_fr_energy">    -11.16010824 </i>
    <i name="e_wo_entrp">    -11.04727045 </i>
    <i name="e_0_energy">    -11.10368934 </i>
   </energy>
  </scstep>
  <scstep>
   <time name="dav">    0.00    0.00</time>
   <time name="total">    0.04    0.04</time>
   <energy>
    <i name="alphaZ">      7.76652320 </i>
    <i name="ewald">    -55.48946276 </i>
    <i name="hartreedc">     -0.68293173 </i>
    <i name="XCdc">      7.27579368 </i>
    <i name="pawpsdc">    126.81538804 </i>
    <i name="pawaedc">   -126.32963998 </i>
    <i name="eentropy">     -0.11283778 </i>
    <i name="bandstr">    -10.32685946 </i>
    <i name="atom">     39.92391144 </i>
    <i name="e_fr_energy">    -11.16011536 </i>
    <i name="e_wo_entrp">    -11.04727758 </i>
    <i name="e_0_energy">    -11.10369647 </i>
   </energy>
  </scstep>
  <structure>
   <crystal>
    <varray name="basis" >
     <v>       1.85468369       1.85468379       0.00000000 </v>
     <v>      -0.00000010       3.70936884      -0.00000000 </v>
     <v>       0.00000000      -0.00000000       1.27403736 </v>
    </varray>
    <i name="volume">      8.76500254 </i>
    <varray name="rec_basis" >
     <v>       0.53917548       0.00000002      -0.00000000 </v>
     <v>      -0.26958765       0.26958763       0.00000000 </v>
     <v>      -0.00000000       0.00000000       0.78490634 </v>
    </varray>
   </crystal>
   <varray name="positions" >
    <v>      -0.00000000       0.00000000       0.00000000 </v>
    <v>       0.00000000       0.49999990       0.49999958 </v>
   </varray>
  </structure>
  <varray name="forces" >
   <v>      -0.00000000       0.00000000       0.00000000 </v>
   <v>       0.00000000      -0.00000000      -0.00000000 </v>
  </varray>
  <varray name="stress" >
   <v>    -372.49372487       0.00013721       0.00000000 </v>
   <v>       0.00013721    -372.49399929       0.00000000 </v>
   <v>       0.00000000       0.00000000     281.92067770 </v>
  </varray>
  <energy>
   <i name="e_fr_energy">    -11.16011536 </i>
   <i name="e_wo_entrp">    -11.04727758 </i>
   <i name="e_0_energy">    -11.10369647 </i>
  </energy>
  <time name="totalsc">    0.38    2.42</time>
  <eigenvalues>
   <array>
    <dimension dim="1">band</dimension>
    <dimension dim="2">kpoint</dimension>
    <dimension dim="3">spin</dimension>
    <field>eigene</field>
    <field>occ</field>
    <set>
     <set comment="spin 1">
      <set comment="kpoint 1">
       <r>   -8.6492    1.0000 </r>
       <r>    6.0147    0.5006 </r>
       <r>    6.0152    0.4994 </r>
       <r>   11.0369    0.0000 </r>
       <r>   15.1901    0.0000 </r>
       <r>   29.8026    0.0000 </r>
      </set>
     </set>
     <set comment="spin 2">
      <set comment="kpoint 1">
       <r>   -7.6926    1.0000 </r>
       <r>    8.8833    0.0000 </r>
       <r>    8.8841    0.0000 </r>
       <r>   12.0861    0.0000 </r>
       <r>   15.8189    0.0000 </r>
       <r>   30.8889    0.0000 </r>
      </set>
     </set>
    </set>
   </array>
  </eigenvalues>
  <separator name="orbital magnetization" >
   <v name="MAGDIPOLOUT">      0.00000000      0.00000000      0.00000000</v>
  </separator>
  <dos>
   <i name="efermi">      6.01494872 </i>
   <total>
    <array>
     <dimension dim="1">gridpoints</dimension>
     <dimension dim="2">spin</dimension>
     <field>energy</field>
     <field>total</field>
     <field>integrated</field>
     <set>
      <set comment="spin 1">
       <r>   -10.6492     0.0000     0.0000 </r>
       <r>   -10.5041     0.0000     0.0000 </r>
       <r>   -10.3589     0.0000     0.0000 </r>
       <r>   -10.2138     0.0000     0.0000 </r>
       <r>   -10.0687     0.0000     0.0000 </r>
       <r>    -9.9235     0.0000     0.0000 </r>
       <r>    -9.7784     0.0000     0.0000 </r>
       <r>    -9.6333     0.0000     0.0000 </r>
       <r>    -9.4882     0.0000     0.0000 </r>
       <r>    -9.3430     0.0000     0.0000 </r>
       <r>    -9.1979     0.0004     0.0001 </r>
       <r>    -9.0528     0.0145     0.0022 </r>
       <r>    -8.9077     0.2180     0.0338 </r>
       <r>    -8.7625     1.2239     0.2114 </r>
       <r>    -8.6174     2.6010     0.5889 </r>
       <r>    -8.4723     2.1059     0.8945 </r>
       <r>    -8.3271     0.6484     0.9886 </r>
       <r>    -8.1820     0.0752     0.9995 </r>
       <r>    -8.0369     0.0032     1.0000 </r>
       <r>    -7.8918     0.0001     1.0000 </r>
       <r>    -7.7466     0.0000     1.0000 </r>
       <r>    -7.6015     0.0000     1.0000 </r>
       <r>    -7.4564     0.0000     1.0000 </r>
       <r>    -7.3113     0.0000     1.0000 </r>
       <r>    -7.1661     0.0000     1.0000 </r>
       <r>    -7.0210     0.0000     1.0000 </r>
       <r>    -6.8759     0.0000     1.0000 </r>
       <r>    -6.7307     0.0000     1.0000 </r>
       <r>    -6.5856     0.0000     1.0000 </r>
       <r>    -6.4405     0.0000     1.0000 </r>
       <r>    -6.2954     0.0000     1.0000 </r>
       <r>    -6.1502     0.0000     1.0000 </r>
       <r>    -6.0051     0.0000     1.0000 </r>
       <r>    -5.8600     0.0000     1.0000 </r>
       <r>    -5.7149     0.0000     1.0000 </r>
       <r>    -5.5697     0.0000     1.0000 </r>
       <r>    -5.4246     0.0000     1.0000 </r>
       <r>    -5.2795     0.0000     1.0000 </r>
       <r>    -5.1344     0.0000     1.0000 </r>
       <r>    -4.9892     0.0000     1.0000 </r>
       <r>    -4.8441     0.0000     1.0000 </r>
       <r>    -4.6990     0.0000     1.0000 </r>
       <r>    -4.5538     0.0000     1.0000 </r>
       <r>    -4.4087     0.0000     1.0000 </r>
       <r>    -4.2636     0.0000     1.0000 </r>
       <r>    -4.1185     0.0000     1.0000 </r>
       <r>    -3.9733     0.0000     1.0000 </r>
       <r>    -3.8282     0.0000     1.0000 </r>
       <r>    -3.6831     0.0000     1.0000 </r>
       <r>    -3.5380     0.0000     1.0000 </r>
       <r>    -3.3928     0.0000     1.0000 </r>
       <r>    -3.2477     0.0000     1.0000 </r>
       <r>    -3.1026     0.0000     1.0000 </r>
       <r>    -2.9574     0.0000     1.0000 </r>
       <r>    -2.8123     0.0000     1.0000 </r>
       <r>    -2.6672     0.0000     1.0000 </r>
       <r>    -2.5221     0.0000     1.0000 </r>
       <r>    -2.3769     0.0000     1.0000 </r>
       <r>    -2.2318     0.0000     1.0000 </r>
       <r>    -2.0867     0.0000     1.0000 </r>
       <r>    -1.9416     0.0000     1.0000 </r>
       <r>    -1.7964     0.0000     1.0000 </r>
       <r>    -1.6513     0.0000     1.0000 </r>
       <r>    -1.5062     0.0000     1.0000 </r>
       <r>    -1.3610     0.0000     1.0000 </r>
       <r>    -1.2159     0.0000     1.0000 </r>
       <r>    -1.0708     0.0000     1.0000 </r>
       <r>    -0.9257     0.0000     1.0000 </r>
       <r>    -0.7805     0.0000     1.0000 </r>
       <r>    -0.6354     0.0000     1.0000 </r>
       <r>    -0.4903     0.0000     1.0000 </r>
       <r>    -0.3452     0.0000     1.0000 </r>
       <r>    -0.2000     0.0000     1.0000 </r>
       <r>    -0.0549     0.0000     1.0000 </r>
       <r>     0.0902     0.0000     1.0000 </r>
       <r>     0.2353     0.0000     1.0000 </r>
       <r>     0.3805     0.0000     1.0000 </r>
       <r>     0.5256     0.0000     1.0000 </r>
       <r>     0.6707     0.0000     1.0000 </r>
       <r>     0.8159     0.0000     1.0000 </r>
       <r>     0.9610     0.0000     1.0000 </r>
       <r>     1.1061     0.0000     1.0000 </r>
       <r>     1.2512     0.0000     1.0000 </r>
       <r>     1.3964     0.0000     1.0000 </r>
       <r>     1.5415     0.0000     1.0000 </r>
       <r>     1.6866     0.0000     1.0000 </r>
       <r>     1.8317     0.0000     1.0000 </r>
       <r>     1.9769     0.0000     1.0000 </r>
       <r>     2.1220     0.0000     1.0000 </r>
       <r>     2.2671     0.0000     1.0000 </r>
       <r>     2.4123     0.0000     1.0000 </r>
       <r>     2.5574     0.0000     1.0000 </r>
       <r>     2.7025     0.0000     1.0000 </r>
       <r>     2.8476     0.0000     1.0000 </r>
       <r>     2.9928     0.0000     1.0000 </r>
       <r>     3.1379     0.0000     1.0000 </r>
       <r>     3.2830     0.0000     1.0000 </r>
       <r>     3.4281     0.0000     1.0000 </r>
       <r>     3.5733     0.0000     1.0000 </r>
       <r>     3.7184     0.0000     1.0000 </r>
       <r>     3.8635     0.0000     1.0000 </r>
       <r>     4.0086     0.0000     1.0000 </r>
       <r>     4.1538     0.0000     1.0000 </r>
       <r>     4.2989     0.0000     1.0000 </r>
       <r>     4.4440     0.0000     1.0000 </r>
       <r>     4.5892     0.0000     1.0000 </r>
       <r>     4.7343     0.0000     1.0000 </r>
       <r>     4.8794     0.0000     1.0000 </r>
       <r>     5.0245     0.0000     1.0000 </r>
       <r>     5.1697     0.0000     1.0000 </r>
       <r>     5.3148     0.0000     1.0000 </r>
       <r>     5.4599     0.0006     1.0001 </r>
       <r>     5.6050     0.0252     1.0038 </r>
       <r>     5.7502     0.3957     1.0612 </r>
       <r>     5.8953     2.3177     1.3975 </r>
       <r>     6.0404     5.1365     2.1430 </r>
       <r>     6.1856     4.3365     2.7723 </r>
       <r>     6.3307     1.3926     2.9744 </r>
       <r>     6.4758     0.1685     2.9989 </r>
       <r>     6.6209     0.0076     3.0000 </r>
       <r>     6.7661     0.0001     3.0000 </r>
       <r>     6.9112     0.0000     3.0000 </r>
       <r>     7.0563     0.0000     3.0000 </r>
       <r>     7.2014     0.0000     3.0000 </r>
       <r>     7.3466     0.0000     3.0000 </r>
       <r>     7.4917     0.0000     3.0000 </r>
       <r>     7.6368     0.0000     3.0000 </r>
       <r>     7.7820     0.0000     3.0000 </r>
       <r>     7.9271     0.0000     3.0000 </r>
       <r>     8.0722     0.0000     3.0000 </r>
       <r>     8.2173     0.0000     3.0000 </r>
       <r>     8.3625     0.0000     3.0000 </r>
       <r>     8.5076     0.0000     3.0000 </r>
       <r>     8.6527     0.0000     3.0000 </r>
       <r>     8.7978     0.0000     3.0000 </r>
       <r>     8.9430     0.0000     3.0000 </r>
       <r>     9.0881     0.0000     3.0000 </r>
       <r>     9.2332     0.0000     3.0000 </r>
       <r>     9.3783     0.0000     3.0000 </r>
       <r>     9.5235     0.0000     3.0000 </r>
       <r>     9.6686     0.0000     3.0000 </r>
       <r>     9.8137     0.0000     3.0000 </r>
       <r>     9.9589     0.0000     3.0000 </r>
       <r>    10.1040     0.0000     3.0000 </r>
       <r>    10.2491     0.0000     3.0000 </r>
       <r>    10.3942     0.0000     3.0000 </r>
       <r>    10.5394     0.0015     3.0002 </r>
       <r>    10.6845     0.0423     3.0064 </r>
       <r>    10.8296     0.4479     3.0714 </r>
       <r>    10.9747     1.7831     3.3301 </r>
       <r>    11.1199     2.6952     3.7213 </r>
       <r>    11.2650     1.5526     3.9466 </r>
       <r>    11.4101     0.3392     3.9958 </r>
       <r>    11.5553     0.0278     3.9999 </r>
       <r>    11.7004     0.0008     4.0000 </r>
       <r>    11.8455     0.0000     4.0000 </r>
       <r>    11.9906     0.0000     4.0000 </r>
       <r>    12.1358     0.0000     4.0000 </r>
       <r>    12.2809     0.0000     4.0000 </r>
       <r>    12.4260     0.0000     4.0000 </r>
       <r>    12.5711     0.0000     4.0000 </r>
       <r>    12.7163     0.0000     4.0000 </r>
       <r>    12.8614     0.0000     4.0000 </r>
       <r>    13.0065     0.0000     4.0000 </r>
       <r>    13.1517     0.0000     4.0000 </r>
       <r>    13.2968     0.0000     4.0000 </r>
       <r>    13.4419     0.0000     4.0000 </r>
       <r>    13.5870     0.0000     4.0000 </r>
       <r>    13.7322     0.0000     4.0000 </r>
       <r>    13.8773     0.0000     4.0000 </r>
       <r>    14.0224     0.0000     4.0000 </r>
       <r>    14.1675     0.0000     4.0000 </r>
       <r>    14.3127     0.0000     4.0000 </r>
       <r>    14.4578     0.0000     4.0000 </r>
       <r>    14.6029     0.0001     4.0000 </r>
       <r>    14.7480     0.0060     4.0009 </r>
       <r>    14.8932     0.1172     4.0179 </r>
       <r>    15.0383     0.8524     4.1416 </r>
       <r>    15.1834     2.3405     4.4813 </r>
       <r>    15.3286     2.4461     4.8363 </r>
       <r>    15.4737     0.9734     4.9775 </r>
       <r>    15.6188     0.1464     4.9988 </r>
       <r>    15.7639     0.0082     5.0000 </r>
       <r>    15.9091     0.0002     5.0000 </r>
       <r>    16.0542     0.0000     5.0000 </r>
       <r>    16.1993     0.0000     5.0000 </r>
       <r>    16.3444     0.0000     5.0000 </r>
       <r>    16.4896     0.0000     5.0000 </r>
       <r>    16.6347     0.0000     5.0000 </r>
       <r>    16.7798     0.0000     5.0000 </r>
       <r>    16.9250     0.0000     5.0000 </r>
       <r>    17.0701     0.0000     5.0000 </r>
       <r>    17.2152     0.0000     5.0000 </r>
       <r>    17.3603     0.0000     5.0000 </r>
       <r>    17.5055     0.0000     5.0000 </r>
       <r>    17.6506     0.0000     5.0000 </r>
       <r>    17.7957     0.0000     5.0000 </r>
       <r>    17.9408     0.0000     5.0000 </r>
       <r>    18.0860     0.0000     5.0000 </r>
       <r>    18.2311     0.0000     5.0000 </r>
       <r>    18.3762     0.0000     5.0000 </r>
       <r>    18.5214     0.0000     5.0000 </r>
       <r>    18.6665     0.0000     5.0000 </r>
       <r>    18.8116     0.0000     5.0000 </r>
       <r>    18.9567     0.0000     5.0000 </r>
       <r>    19.1019     0.0000     5.0000 </r>
       <r>    19.2470     0.0000     5.0000 </r>
       <r>    19.3921     0.0000     5.0000 </r>
       <r>    19.5372     0.0000     5.0000 </r>
       <r>    19.6824     0.0000     5.0000 </r>
       <r>    19.8275     0.0000     5.0000 </r>
       <r>    19.9726     0.0000     5.0000 </r>
       <r>    20.1177     0.0000     5.0000 </r>
       <r>    20.2629     0.0000     5.0000 </r>
       <r>    20.4080     0.0000     5.0000 </r>
       <r>    20.5531     0.0000     5.0000 </r>
       <r>    20.6983     0.0000     5.0000 </r>
       <r>    20.8434     0.0000     5.0000 </r>
       <r>    20.9885     0.0000     5.0000 </r>
       <r>    21.1336     0.0000     5.0000 </r>
       <r>    21.2788     0.0000     5.0000 </r>
       <r>    21.4239     0.0000     5.0000 </r>
       <r>    21.5690     0.0000     5.0000 </r>
       <r>    21.7141     0.0000     5.0000 </r>
       <r>    21.8593     0.0000     5.0000 </r>
       <r>    22.0044     0.0000     5.0000 </r>
       <r>    22.1495     0.0000     5.0000 </r>
       <r>    22.2947     0.0000     5.0000 </r>
       <r>    22.4398     0.0000     5.0000 </r>
       <r>    22.5849     0.0000     5.0000 </r>
       <r>    22.7300     0.0000     5.0000 </r>
       <r>    22.8752     0.0000     5.0000 </r>
       <r>    23.0203     0.0000     5.0000 </r>
       <r>    23.1654     0.0000     5.0000 </r>
       <r>    23.3105     0.0000     5.0000 </r>
       <r>    23.4557     0.0000     5.0000 </r>
       <r>    23.6008     0.0000     5.0000 </r>
       <r>    23.7459     0.0000     5.0000 </r>
       <r>    23.8910     0.0000     5.0000 </r>
       <r>    24.0362     0.0000     5.0000 </r>
       <r>    24.1813     0.0000     5.0000 </r>
       <r>    24.3264     0.0000     5.0000 </r>
       <r>    24.4716     0.0000     5.0000 </r>
       <r>    24.6167     0.0000     5.0000 </r>
       <r>    24.7618     0.0000     5.0000 </r>
       <r>    24.9069     0.0000     5.0000 </r>
       <r>    25.0521     0.0000     5.0000 </r>
       <r>    25.1972     0.0000     5.0000 </r>
       <r>    25.3423     0.0000     5.0000 </r>
       <r>    25.4874     0.0000     5.0000 </r>
       <r>    25.6326     0.0000     5.0000 </r>
       <r>    25.7777     0.0000     5.0000 </r>
       <r>    25.9228     0.0000     5.0000 </r>
       <r>    26.0680     0.0000     5.0000 </r>
       <r>    26.2131     0.0000     5.0000 </r>
       <r>    26.3582     0.0000     5.0000 </r>
       <r>    26.5033     0.0000     5.0000 </r>
       <r>    26.6485     0.0000     5.0000 </r>
       <r>    26.7936     0.0000     5.0000 </r>
       <r>    26.9387     0.0000     5.0000 </r>
       <r>    27.0838     0.0000     5.0000 </r>
       <r>    27.2290     0.0000     5.0000 </r>
       <r>    27.3741     0.0000     5.0000 </r>
       <r>    27.5192     0.0000     5.0000 </r>
       <r>    27.6644     0.0000     5.0000 </r>
       <r>    27.8095     0.0000     5.0000 </r>
       <r>    27.9546     0.0000     5.0000 </r>
       <r>    28.0997     0.0000     5.0000 </r>
       <r>    28.2449     0.0000     5.0000 </r>
       <r>    28.3900     0.0000     5.0000 </r>
       <r>    28.5351     0.0000     5.0000 </r>
       <r>    28.6802     0.0000     5.0000 </r>
       <r>    28.8254     0.0000     5.0000 </r>
       <r>    28.9705     0.0000     5.0000 </r>
       <r>    29.1156     0.0000     5.0000 </r>
       <r>    29.2607     0.0004     5.0001 </r>
       <r>    29.4059     0.0169     5.0025 </r>
       <r>    29.5510     0.2417     5.0376 </r>
       <r>    29.6961     1.2960     5.2257 </r>
       <r>    29.8413     2.6316     5.6076 </r>
       <r>    29.9864     2.0361     5.9031 </r>
       <r>    30.1315     0.5989     5.9900 </r>
       <r>    30.2766     0.0663     5.9996 </r>
       <r>    30.4218     0.0027     6.0000 </r>
       <r>    30.5669     0.0000     6.0000 </r>
       <r>    30.7120     0.0000     6.0000 </r>
       <r>    30.8571     0.0000     6.0000 </r>
       <r>    31.0023     0.0000     6.0000 </r>
       <r>    31.1474     0.0000     6.0000 </r>
       <r>    31.2925     0.0000     6.0000 </r>
       <r>    31.4377     0.0000     6.0000 </r>
       <r>    31.5828     0.0000     6.0000 </r>
       <r>    31.7279     0.0000     6.0000 </r>
       <r>    31.8730     0.0000     6.0000 </r>
       <r>    32.0182     0.0000     6.0000 </r>
       <r>    32.1633     0.0000     6.0000 </r>
       <r>    32.3084     0.0000     6.0000 </r>
       <r>    32.4535     0.0000     6.0000 </r>
       <r>    32.5987     0.0000     6.0000 </r>
       <r>    32.7438     0.0000     6.0000 </r>
       <r>    32.8889     0.0000     6.0000 </r>
      </set>
      <set comment="spin 2">
       <r>   -10.6492     0.0000     0.0000 </r>
       <r>   -10.5041     0.0000     0.0000 </r>
       <r>   -10.3589     0.0000     0.0000 </r>
       <r>   -10.2138     0.0000     0.0000 </r>
       <r>   -10.0687     0.0000     0.0000 </r>
       <r>    -9.9235     0.0000     0.0000 </r>
       <r>    -9.7784     0.0000     0.0000 </r>
       <r>    -9.6333     0.0000     0.0000 </r>
       <r>    -9.4882     0.0000     0.0000 </r>
       <r>    -9.3430     0.0000     0.0000 </r>
       <r>    -9.1979     0.0000     0.0000 </r>
       <r>    -9.0528     0.0000     0.0000 </r>
       <r>    -8.9077     0.0000     0.0000 </r>
       <r>    -8.7625     0.0000     0.0000 </r>
       <r>    -8.6174     0.0000     0.0000 </r>
       <r>    -8.4723     0.0000     0.0000 </r>
       <r>    -8.3271     0.0000     0.0000 </r>
       <r>    -8.1820     0.0018     0.0003 </r>
       <r>    -8.0369     0.0495     0.0075 </r>
       <r>    -7.8918     0.4967     0.0796 </r>
       <r>    -7.7466     1.8723     0.3513 </r>
       <r>    -7.6015     2.6807     0.7403 </r>
       <r>    -7.4564     1.4627     0.9526 </r>
       <r>    -7.3113     0.3025     0.9965 </r>
       <r>    -7.1661     0.0234     0.9999 </r>
       <r>    -7.0210     0.0007     1.0000 </r>
       <r>    -6.8759     0.0000     1.0000 </r>
       <r>    -6.7307     0.0000     1.0000 </r>
       <r>    -6.5856     0.0000     1.0000 </r>
       <r>    -6.4405     0.0000     1.0000 </r>
       <r>    -6.2954     0.0000     1.0000 </r>
       <r>    -6.1502     0.0000     1.0000 </r>
       <r>    -6.0051     0.0000     1.0000 </r>
       <r>    -5.8600     0.0000     1.0000 </r>
       <r>    -5.7149     0.0000     1.0000 </r>
       <r>    -5.5697     0.0000     1.0000 </r>
       <r>    -5.4246     0.0000     1.0000 </r>
       <r>    -5.2795     0.0000     1.0000 </r>
       <r>    -5.1344     0.0000     1.0000 </r>
       <r>    -4.9892     0.0000     1.0000 </r>
       <r>    -4.8441     0.0000     1.0000 </r>
       <r>    -4.6990     0.0000     1.0000 </r>
       <r>    -4.5538     0.0000     1.0000 </r>
       <r>    -4.4087     0.0000     1.0000 </r>
       <r>    -4.2636     0.0000     1.0000 </r>
       <r>    -4.1185     0.0000     1.0000 </r>
       <r>    -3.9733     0.0000     1.0000 </r>
       <r>    -3.8282     0.0000     1.0000 </r>
       <r>    -3.6831     0.0000     1.0000 </r>
       <r>    -3.5380     0.0000     1.0000 </r>
       <r>    -3.3928     0.0000     1.0000 </r>
       <r>    -3.2477     0.0000     1.0000 </r>
       <r>    -3.1026     0.0000     1.0000 </r>
       <r>    -2.9574     0.0000     1.0000 </r>
       <r>    -2.8123     0.0000     1.0000 </r>
       <r>    -2.6672     0.0000     1.0000 </r>
       <r>    -2.5221     0.0000     1.0000 </r>
       <r>    -2.3769     0.0000     1.0000 </r>
       <r>    -2.2318     0.0000     1.0000 </r>
       <r>    -2.0867     0.0000     1.0000 </r>
       <r>    -1.9416     0.0000     1.0000 </r>
       <r>    -1.7964     0.0000     1.0000 </r>
       <r>    -1.6513     0.0000     1.0000 </r>
       <r>    -1.5062     0.0000     1.0000 </r>
       <r>    -1.3610     0.0000     1.0000 </r>
       <r>    -1.2159     0.0000     1.0000 </r>
       <r>    -1.0708     0.0000     1.0000 </r>
       <r>    -0.9257     0.0000     1.0000 </r>
       <r>    -0.7805     0.0000     1.0000 </r>
       <r>    -0.6354     0.0000     1.0000 </r>
       <r>    -0.4903     0.0000     1.0000 </r>
       <r>    -0.3452     0.0000     1.0000 </r>
       <r>    -0.2000     0.0000     1.0000 </r>
       <r>    -0.0549     0.0000     1.0000 </r>
       <r>     0.0902     0.0000     1.0000 </r>
       <r>     0.2353     0.0000     1.0000 </r>
       <r>     0.3805     0.0000     1.0000 </r>
       <r>     0.5256     0.0000     1.0000 </r>
       <r>     0.6707     0.0000     1.0000 </r>
       <r>     0.8159     0.0000     1.0000 </r>
       <r>     0.9610     0.0000     1.0000 </r>
       <r>     1.1061     0.0000     1.0000 </r>
       <r>     1.2512     0.0000     1.0000 </r>
       <r>     1.3964     0.0000     1.0000 </r>
       <r>     1.5415     0.0000     1.0000 </r>
       <r>     1.6866     0.0000     1.0000 </r>
       <r>     1.8317     0.0000     1.0000 </r>
       <r>     1.9769     0.0000     1.0000 </r>
       <r>     2.1220     0.0000     1.0000 </r>
       <r>     2.2671     0.0000     1.0000 </r>
       <r>     2.4123     0.0000     1.0000 </r>
       <r>     2.5574     0.0000     1.0000 </r>
       <r>     2.7025     0.0000     1.0000 </r>
       <r>     2.8476     0.0000     1.0000 </r>
       <r>     2.9928     0.0000     1.0000 </r>
       <r>     3.1379     0.0000     1.0000 </r>
       <r>     3.2830     0.0000     1.0000 </r>
       <r>     3.4281     0.0000     1.0000 </r>
       <r>     3.5733     0.0000     1.0000 </r>
       <r>     3.7184     0.0000     1.0000 </r>
       <r>     3.8635     0.0000     1.0000 </r>
       <r>     4.0086     0.0000     1.0000 </r>
       <r>     4.1538     0.0000     1.0000 </r>
       <r>     4.2989     0.0000     1.0000 </r>
       <r>     4.4440     0.0000     1.0000 </r>
       <r>     4.5892     0.0000     1.0000 </r>
       <r>     4.7343     0.0000     1.0000 </r>
       <r>     4.8794     0.0000     1.0000 </r>
       <r>     5.0245     0.0000     1.0000 </r>
       <r>     5.1697     0.0000     1.0000 </r>
       <r>     5.3148     0.0000     1.0000 </r>
       <r>     5.4599     0.0000     1.0000 </r>
       <r>     5.6050     0.0000     1.0000 </r>
       <r>     5.7502     0.0000     1.0000 </r>
       <r>     5.8953     0.0000     1.0000 </r>
       <r>     6.0404     0.0000     1.0000 </r>
       <r>     6.1856     0.0000     1.0000 </r>
       <r>     6.3307     0.0000     1.0000 </r>
       <r>     6.4758     0.0000     1.0000 </r>
       <r>     6.6209     0.0000     1.0000 </r>
       <r>     6.7661     0.0000     1.0000 </r>
       <r>     6.9112     0.0000     1.0000 </r>
       <r>     7.0563     0.0000     1.0000 </r>
       <r>     7.2014     0.0000     1.0000 </r>
       <r>     7.3466     0.0000     1.0000 </r>
       <r>     7.4917     0.0000     1.0000 </r>
       <r>     7.6368     0.0000     1.0000 </r>
       <r>     7.7820     0.0000     1.0000 </r>
       <r>     7.9271     0.0000     1.0000 </r>
       <r>     8.0722     0.0000     1.0000 </r>
       <r>     8.2173     0.0000     1.0000 </r>
       <r>     8.3625     0.0016     1.0002 </r>
       <r>     8.5076     0.0524     1.0078 </r>
       <r>     8.6527     0.6517     1.1024 </r>
       <r>     8.7978     3.0413     1.5438 </r>
       <r>     8.9430     5.3820     2.3249 </r>
       <r>     9.0881     3.6297     2.8516 </r>
       <r>     9.2332     0.9297     2.9865 </r>
       <r>     9.3783     0.0895     2.9995 </r>
       <r>     9.5235     0.0032     3.0000 </r>
       <r>     9.6686     0.0000     3.0000 </r>
       <r>     9.8137     0.0000     3.0000 </r>
       <r>     9.9589     0.0000     3.0000 </r>
       <r>    10.1040     0.0000     3.0000 </r>
       <r>    10.2491     0.0000     3.0000 </r>
       <r>    10.3942     0.0000     3.0000 </r>
       <r>    10.5394     0.0000     3.0000 </r>
       <r>    10.6845     0.0000     3.0000 </r>
       <r>    10.8296     0.0000     3.0000 </r>
       <r>    10.9747     0.0000     3.0000 </r>
       <r>    11.1199     0.0000     3.0000 </r>
       <r>    11.2650     0.0000     3.0000 </r>
       <r>    11.4101     0.0000     3.0000 </r>
       <r>    11.5553     0.0006     3.0001 </r>
       <r>    11.7004     0.0214     3.0032 </r>
       <r>    11.8455     0.2844     3.0445 </r>
       <r>    11.9906     1.4155     3.2499 </r>
       <r>    12.1358     2.6698     3.6374 </r>
       <r>    12.2809     1.9189     3.9158 </r>
       <r>    12.4260     0.5240     3.9919 </r>
       <r>    12.5711     0.0538     3.9997 </r>
       <r>    12.7163     0.0021     4.0000 </r>
       <r>    12.8614     0.0000     4.0000 </r>
       <r>    13.0065     0.0000     4.0000 </r>
       <r>    13.1517     0.0000     4.0000 </r>
       <r>    13.2968     0.0000     4.0000 </r>
       <r>    13.4419     0.0000     4.0000 </r>
       <r>    13.5870     0.0000     4.0000 </r>
       <r>    13.7322     0.0000     4.0000 </r>
       <r>    13.8773     0.0000     4.0000 </r>
       <r>    14.0224     0.0000     4.0000 </r>
       <r>    14.1675     0.0000     4.0000 </r>
       <r>    14.3127     0.0000     4.0000 </r>
       <r>    14.4578     0.0000     4.0000 </r>
       <r>    14.6029     0.0000     4.0000 </r>
       <r>    14.7480     0.0000     4.0000 </r>
       <r>    14.8932     0.0000     4.0000 </r>
       <r>    15.0383     0.0000     4.0000 </r>
       <r>    15.1834     0.0000     4.0000 </r>
       <r>    15.3286     0.0018     4.0003 </r>
       <r>    15.4737     0.0487     4.0073 </r>
       <r>    15.6188     0.4911     4.0786 </r>
       <r>    15.7639     1.8623     4.3489 </r>
       <r>    15.9091     2.6827     4.7382 </r>
       <r>    16.0542     1.4728     4.9519 </r>
       <r>    16.1993     0.3065     4.9964 </r>
       <r>    16.3444     0.0239     4.9999 </r>
       <r>    16.4896     0.0007     5.0000 </r>
       <r>    16.6347     0.0000     5.0000 </r>
       <r>    16.7798     0.0000     5.0000 </r>
       <r>    16.9250     0.0000     5.0000 </r>
       <r>    17.0701     0.0000     5.0000 </r>
       <r>    17.2152     0.0000     5.0000 </r>
       <r>    17.3603     0.0000     5.0000 </r>
       <r>    17.5055     0.0000     5.0000 </r>
       <r>    17.6506     0.0000     5.0000 </r>
       <r>    17.7957     0.0000     5.0000 </r>
       <r>    17.9408     0.0000     5.0000 </r>
       <r>    18.0860     0.0000     5.0000 </r>
       <r>    18.2311     0.0000     5.0000 </r>
       <r>    18.3762     0.0000     5.0000 </r>
       <r>    18.5214     0.0000     5.0000 </r>
       <r>    18.6665     0.0000     5.0000 </r>
       <r>    18.8116     0.0000     5.0000 </r>
       <r>    18.9567     0.0000     5.0000 </r>
       <r>    19.1019     0.0000     5.0000 </r>
       <r>    19.2470     0.0000     5.0000 </r>
       <r>    19.3921     0.0000     5.0000 </r>
       <r>    19.5372     0.0000     5.0000 </r>
       <r>    19.6824     0.0000     5.0000 </r>
       <r>    19.8275     0.0000     5.0000 </r>
       <r>    19.9726     0.0000     5.0000 </r>
       <r>    20.1177     0.0000     5.0000 </r>
       <r>    20.2629     0.0000     5.0000 </r>
       <r>    20.4080     0.0000     5.0000 </r>
       <r>    20.5531     0.0000     5.0000 </r>
       <r>    20.6983     0.0000     5.0000 </r>
       <r>    20.8434     0.0000     5.0000 </r>
       <r>    20.9885     0.0000     5.0000 </r>
       <r>    21.1336     0.0000     5.0000 </r>
       <r>    21.2788     0.0000     5.0000 </r>
       <r>    21.4239     0.0000     5.0000 </r>
       <r>    21.5690     0.0000     5.0000 </r>
       <r>    21.7141     0.0000     5.0000 </r>
       <r>    21.8593     0.0000     5.0000 </r>
       <r>    22.0044     0.0000     5.0000 </r>
       <r>    22.1495     0.0000     5.0000 </r>
       <r>    22.2947     0.0000     5.0000 </r>
       <r>    22.4398     0.0000     5.0000 </r>
       <r>    22.5849     0.0000     5.0000 </r>
       <r>    22.7300     0.0000     5.0000 </r>
       <r>    22.8752     0.0000     5.0000 </r>
       <r>    23.0203     0.0000     5.0000 </r>
       <r>    23.1654     0.0000     5.0000 </r>
       <r>    23.3105     0.0000     5.0000 </r>
       <r>    23.4557     0.0000     5.0000 </r>
       <r>    23.6008     0.0000     5.0000 </r>
       <r>    23.7459     0.0000     5.0000 </r>
       <r>    23.8910     0.0000     5.0000 </r>
       <r>    24.0362     0.0000     5.0000 </r>
       <r>    24.1813     0.0000     5.0000 </r>
       <r>    24.3264     0.0000     5.0000 </r>
       <r>    24.4716     0.0000     5.0000 </r>
       <r>    24.6167     0.0000     5.0000 </r>
       <r>    24.7618     0.0000     5.0000 </r>
       <r>    24.9069     0.0000     5.0000 </r>
       <r>    25.0521     0.0000     5.0000 </r>
       <r>    25.1972     0.0000     5.0000 </r>
       <r>    25.3423     0.0000     5.0000 </r>
       <r>    25.4874     0.0000     5.0000 </r>
       <r>    25.6326     0.0000     5.0000 </r>
       <r>    25.7777     0.0000     5.0000 </r>
       <r>    25.9228     0.0000     5.0000 </r>
       <r>    26.0680     0.0000     5.0000 </r>
       <r>    26.2131     0.0000     5.0000 </r>
       <r>    26.3582     0.0000     5.0000 </r>
       <r>    26.5033     0.0000     5.0000 </r>
       <r>    26.6485     0.0000     5.0000 </r>
       <r>    26.7936     0.0000     5.0000 </r>
       <r>    26.9387     0.0000     5.0000 </r>
       <r>    27.0838     0.0000     5.0000 </r>
       <r>    27.2290     0.0000     5.0000 </r>
       <r>    27.3741     0.0000     5.0000 </r>
       <r>    27.5192     0.0000     5.0000 </r>
       <r>    27.6644     0.0000     5.0000 </r>
       <r>    27.8095     0.0000     5.0000 </r>
       <r>    27.9546     0.0000     5.0000 </r>
       <r>    28.0997     0.0000     5.0000 </r>
       <r>    28.2449     0.0000     5.0000 </r>
       <r>    28.3900     0.0000     5.0000 </r>
       <r>    28.5351     0.0000     5.0000 </r>
       <r>    28.6802     0.0000     5.0000 </r>
       <r>    28.8254     0.0000     5.0000 </r>
       <r>    28.9705     0.0000     5.0000 </r>
       <r>    29.1156     0.0000     5.0000 </r>
       <r>    29.2607     0.0000     5.0000 </r>
       <r>    29.4059     0.0000     5.0000 </r>
       <r>    29.5510     0.0000     5.0000 </r>
       <r>    29.6961     0.0000     5.0000 </r>
       <r>    29.8413     0.0000     5.0000 </r>
       <r>    29.9864     0.0000     5.0000 </r>
       <r>    30.1315     0.0000     5.0000 </r>
       <r>    30.2766     0.0001     5.0000 </r>
       <r>    30.4218     0.0032     5.0005 </r>
       <r>    30.5669     0.0752     5.0114 </r>
       <r>    30.7120     0.6484     5.1055 </r>
       <r>    30.8571     2.1059     5.4111 </r>
       <r>    31.0023     2.6010     5.7886 </r>
       <r>    31.1474     1.2239     5.9662 </r>
       <r>    31.2925     0.2180     5.9978 </r>
       <r>    31.4377     0.0145     5.9999 </r>
       <r>    31.5828     0.0004     6.0000 </r>
       <r>    31.7279     0.0000     6.0000 </r>
       <r>    31.8730     0.0000     6.0000 </r>
       <r>    32.0182     0.0000     6.0000 </r>
       <r>    32.1633     0.0000     6.0000 </r>
       <r>    32.3084     0.0000     6.0000 </r>
       <r>    32.4535     0.0000     6.0000 </r>
       <r>    32.5987     0.0000     6.0000 </r>
       <r>    32.7438     0.0000     6.0000 </r>
       <r>    32.8889     0.0000     6.0000 </r>
      </set>
     </set>
    </array>
   </total>
  </dos>
 </calculation>
 <structure name="finalpos" >
  <crystal>
   <varray name="basis" >
    <v>       1.85468369       1.85468379       0.00000000 </v>
    <v>      -0.00000010       3.70936884      -0.00000000 </v>
    <v>       0.00000000      -0.00000000       1.27403736 </v>
   </varray>
   <i name="volume">      8.76500254 </i>
   <varray name="rec_basis" >
    <v>       0.53917548       0.00000002      -0.00000000 </v>
    <v>      -0.26958765       0.26958763       0.00000000 </v>
    <v>      -0.00000000       0.00000000       0.78490634 </v>
   </varray>
  </crystal>
  <varray name="positions" >
   <v>      -0.00000000       0.00000000       0.00000000 </v>
   <v>       0.00000000       0.49999990       0.49999958 </v>
  </varray>
 </structure>
</modeling>
