unknown system                          
           1
     1.603240    1.603240    0.000000
    -0.000000    3.206481    0.000000
     0.000000    0.000000    2.266682
   Be   H 
     1     1
Direct configuration=     1
   0.00000000  0.00000000  0.00000000
   0.00000000  0.49999990  0.49999958
