unknown system                          
           1
     1.603240    1.603240    0.000000
    -0.000000    3.206481    0.000000
     0.000000    0.000000    2.266682
   Be   H 
     1     1
Direct configuration=     1
   0.00000000  0.00000000  0.00000000
   0.00000000  0.49999990  0.49999958
unknown system                          
           1
     1.971929    1.971929    0.000000
    -0.000000    3.943860    0.000000
    -0.000000   -0.000000    1.493328
   Be   H 
     1     1
Direct configuration=     2
  -0.00000000  0.00000000  0.00000000
   0.00000000  0.49999990  0.49999958
unknown system                          
           1
     1.975296    1.975296    0.000000
    -0.000000    3.950594    0.000000
    -0.000000   -0.000000    1.486266
   Be   H 
     1     1
Direct configuration=     3
  -0.00000000  0.00000000  0.00000000
   0.00000000  0.49999990  0.49999958
unknown system                          
           1
     1.879148    1.879148    0.000000
    -0.000000    3.758297   -0.000000
     0.000000   -0.000000    1.317084
   Be   H 
     1     1
Direct configuration=     4
  -0.00000000  0.00000000  0.00000000
   0.00000000  0.49999990  0.49999958
unknown system                          
           1
     1.854684    1.854684    0.000000
    -0.000000    3.709369   -0.000000
     0.000000   -0.000000    1.274037
   Be   H 
     1     1
Direct configuration=     5
  -0.00000000  0.00000000  0.00000000
   0.00000000  0.49999990  0.49999958
unknown system                          
           1
     1.854684    1.854684    0.000000
    -0.000000    3.709369   -0.000000
     0.000000   -0.000000    1.274037
   Be   H 
     1     1
Direct configuration=     5
  -0.00000000  0.00000000  0.00000000
   0.00000000  0.49999990  0.49999958
